
# Create simulation box and atoms
lattice		    sc 1
Lattice spacing in x,y,z = 1 1 1
region 		    all block 0 51.42 0 51.42 0 51.42 units box
create_box 	    1 all
Created orthogonal box = (0 0 0) to (51.42 51.42 51.42)
  2 by 2 by 3 MPI processor grid

create_atoms	1 random 4457 ${SEED} all
create_atoms	1 random 4457 27892 all
Created 4457 atoms
  create_atoms CPU = 0.000446558 secs

mass		    1 18.15

# Define potential

pair_style 	    sw
pair_coeff	    * * mW_real.sw mW
Reading potential file mW_real.sw with DATE: 2019-02-27

# Run minimization

minimize 	    1.0e-8 1.0e-8 10000 1000
WARNING: Using 'neigh_modify every 1 delay 0 check yes' setting during minimization (../min.cpp:168)
Neighbor list info ...
  update every 1 steps, delay 0 steps, check yes
  max neighbors/atom: 2000, page size: 100000
  master list distance cutoff = 6.3065
  ghost atom cutoff = 6.3065
  binsize = 3.15325, bins = 17 17 17
  1 neighbor lists, perpetual/occasional/extra = 1 0 0
  (1) pair sw, perpetual
      attributes: full, newton on
      pair build: full/bin/atomonly
      stencil: full/bin/3d
      bin: standard
Per MPI rank memory allocation (min/avg/max) = 4.225 | 4.228 | 4.23 Mbytes
Step Temp E_pair E_mol TotEng Press 
       0            0    2203345.7            0    2203345.7    1605796.9 
     728            0   -50322.753            0   -50322.753   -1104.8739 
Loop time of 1.88457 on 12 procs for 728 steps with 4457 atoms

99.6% CPU use with 12 MPI tasks x no OpenMP threads

Minimization stats:
  Stopping criterion = max force evaluations
  Energy initial, next-to-last, final = 
         2203345.67728     -50322.3589224     -50322.7529339
  Force two-norm initial, final = 9.3561e+06 4.7971
  Force max component initial, final = 4.42948e+06 1.4472
  Final line search alpha, max atom move = 0.0584316 0.0845621
  Iterations, force evaluations = 728 1001

MPI task timing breakdown:
Section |  min time  |  avg time  |  max time  |%varavg| %total
---------------------------------------------------------------
Pair    | 1.4597     | 1.6014     | 1.7973     |   8.3 | 84.97
Neigh   | 0.026127   | 0.027479   | 0.02859    |   0.5 |  1.46
Comm    | 0.032674   | 0.22886    | 0.3715     |  22.2 | 12.14
Output  | 0          | 0          | 0          |   0.0 |  0.00
Modify  | 0          | 0          | 0          |   0.0 |  0.00
Other   |            | 0.02686    |            |       |  1.43

Nlocal:    371.417 ave 383 max 355 min
Histogram: 1 0 0 2 2 2 1 0 1 3
Nghost:    1056.08 ave 1074 max 1036 min
Histogram: 1 1 0 3 1 1 1 1 1 2
Neighs:    0 ave 0 max 0 min
Histogram: 12 0 0 0 0 0 0 0 0 0
FullNghs:  12010.3 ave 12695 max 11196 min
Histogram: 1 0 1 1 4 1 0 1 1 2

Total # of neighbors = 144124
Ave neighs/atom = 32.3365
Neighbor list builds = 41
Dangerous builds = 0

# Create Cavity with Hard sphere "indent" potential

region		    cavity sphere 25.71 25.71 25.71 13.8 side in
delete_atoms	    region cavity
Deleted 368 atoms, new total = 4089
fix 		    5 all indent 10.0 sphere 25.71 25.71 25.71 13.8

# Equilibration of molecular water

# Add velocity/set timestep

velocity	    all create ${TEMP} ${SEED} rot yes dist gaussian
velocity	    all create 215 ${SEED} rot yes dist gaussian
velocity	    all create 215 27892 rot yes dist gaussian
timestep	    5.0

# Define output

compute			1 all msd
thermo	    	50
thermo_style	custom step temp press vol etotal ke pe c_1[4]

# Neighbor lists

neigh_modify    delay 0 every 1 check yes

# Set fixes

fix             1 all momentum 10 linear 1 1 1 rescale
fix             2 all nve
fix             3 all temp/csvr ${TEMP} ${TEMP} 500.0 ${SEED}
fix             3 all temp/csvr 215 ${TEMP} 500.0 ${SEED}
fix             3 all temp/csvr 215 215 500.0 ${SEED}
fix             3 all temp/csvr 215 215 500.0 27892
fix             4 all press/berendsen iso ${PRES} ${PRES} 1000.0 modulus 20000
fix             4 all press/berendsen iso 1.0 ${PRES} 1000.0 modulus 20000
fix             4 all press/berendsen iso 1.0 1.0 1000.0 modulus 20000

# Run 1 ns equilibration

dump		    1 all atom 2000 ${DIR}/eq.${NAME}-${TEMP}.dump
dump		    1 all atom 2000 run_3/eq.${NAME}-${TEMP}.dump
dump		    1 all atom 2000 run_3/eq.hardcavity_freeze_3-${TEMP}.dump
dump		    1 all atom 2000 run_3/eq.hardcavity_freeze_3-215.dump

reset_timestep  0

run	            200000
Per MPI rank memory allocation (min/avg/max) = 4.49 | 4.492 | 4.494 Mbytes
Step Temp Press Volume TotEng KinEng PotEng c_1[4] 
       0          215   -357.99324    135955.32   -42999.228    2619.8936   -45619.122 1.1599103e-34 
      50     136.0015   -103.35515    135846.81    -42435.84    1657.2533   -44093.093   0.21794413 
     100    147.13156   -140.97565    135519.81   -42025.663    1792.8792   -43818.542   0.40427383 
     150    164.58347   -150.18822     135295.3   -41673.224    2005.5404   -43678.764   0.56764484 
     200    174.96796   -112.14234    135066.98   -41418.884    2132.0811   -43550.965   0.71669528 
     250    183.13929    19.602214    134894.86   -41197.191    2231.6532   -43428.844   0.88815773 
     300    190.97102   -99.087023    134832.95   -40999.459    2327.0871   -43326.546    1.0373136 
     350    192.46693    20.182234     134673.8    -40929.22    2345.3157   -43274.536    1.1985322 
     400    205.01496   -9.0723965    134569.28   -40787.324    2498.2204   -43285.544    1.3559818 
     450    204.74759    -160.2435    134473.15   -40668.117    2494.9623   -43163.079    1.5577348 
     500    207.83997   -86.192901    134315.97   -40630.318    2532.6446   -43162.963    1.7409434 
     550    211.82024    25.471843    134228.08   -40575.786    2581.1465   -43156.933    1.9122804 
     600     213.5736   -46.436619    134139.13    -40529.09    2602.5121   -43131.602    2.0668187 
     650    211.01002   -276.98375    133935.51   -40477.398    2571.2735   -43048.671    2.2376239 
     700    216.85212   -36.596144     133708.1   -40480.303    2642.4626   -43122.766    2.3749434 
     750    218.75801   -171.57307    133520.56   -40456.402     2665.687   -43122.089    2.5226012 
     800    217.40276   -385.16128    133249.95   -40452.711    2649.1725   -43101.884    2.7105381 
     850    214.73654    68.863908    133080.43   -40477.797    2616.6832    -43094.48    2.9710371 
     900    216.97795   -151.14779     132933.3   -40495.392     2643.996   -43139.388    3.1939284 
     950    216.11542   -70.926645    132661.92   -40514.178    2633.4856   -43147.663    3.3719115 
    1000    216.65226   -158.16375    132699.67   -40586.117    2640.0273   -43226.144     3.578395 
    1050    208.52096    47.178503    132544.77   -40571.711    2540.9429   -43112.654    3.7933545 
    1100    209.38583   -32.342021    132417.58   -40594.891    2551.4818   -43146.373    3.9966093 
    1150    215.47714   -18.287934    132354.59   -40523.105    2625.7078   -43148.813    4.1913045 
    1200    219.76732    75.833042    132388.18   -40477.306     2677.986   -43155.292    4.3133202 
    1250    219.63616   -118.73898    132261.55   -40486.968    2676.3877   -43163.356    4.4943231 
    1300    211.80308   -88.676803    132185.46   -40540.272    2580.9373    -43121.21    4.7052037 
    1350    219.39724   -8.3045598    131962.07   -40546.777    2673.4764   -43220.253    4.8284493 
    1400    211.34085   -99.719497    131877.78       -40611    2575.3048   -43186.305    5.0571282 
    1450    212.60449    23.491318    131788.03   -40603.623     2590.703   -43194.326    5.2695448 
    1500    211.24156   -225.29464    131736.42   -40614.504    2574.0949   -43188.599    5.4523107 
    1550    215.14645   -18.382715    131679.08   -40573.189    2621.6781   -43194.868    5.7158806 
    1600     213.6411    5.6137701    131797.28   -40531.272    2603.3346   -43134.606    5.8809329 
    1650    212.49228   -81.848149    131693.74   -40520.135    2589.3356   -43109.471    6.0195142 
    1700    211.63417   -45.320609    131730.13    -40547.22    2578.8791   -43126.099    6.1562495 
    1750    213.97952    11.242184    131736.36   -40640.779    2607.4584   -43248.237    6.2742239 
    1800     212.1833    61.847587     131772.2   -40615.878    2585.5705   -43201.449    6.4763028 
    1850    212.66842    24.607145    131894.15   -40624.344    2591.4819   -43215.826    6.6565748 
    1900    211.55637    210.90915    132057.53   -40622.888    2577.9311   -43200.819    6.8894084 
    1950    215.88987   -31.885076    132232.62   -40591.374    2630.7372   -43222.112    7.1027221 
    2000    216.38003    48.310355    132136.55   -40594.567      2636.71   -43231.277    7.2805082 
    2050    214.04626     70.77137    132225.95   -40615.119    2608.2718   -43223.391    7.4155055 
    2100    211.92813    12.992899    132237.58   -40578.165    2582.4612   -43160.626    7.5532157 
    2150    214.76708    79.040758    132280.68   -40561.476    2617.0554   -43178.532    7.7510599 
    2200    209.50143   -163.83972    132198.21   -40601.851    2552.8904   -43154.742    7.8822538 
    2250    211.46754    36.788208    132165.79   -40635.077    2576.8486   -43211.926    8.0777615 
    2300    220.53589   -120.33353    132109.72   -40598.046    2687.3514   -43285.397    8.1955973 
    2350    211.87467    90.392276    132092.52   -40595.773    2581.8097   -43177.583    8.3223843 
    2400     216.0395    -63.94428    131996.01   -40626.949    2632.5604   -43259.509    8.4441959 
    2450     215.4254   -121.81927    131962.64   -40584.841    2625.0773   -43209.919     8.453633 
    2500    213.60161    8.1467942    131892.08   -40611.546    2602.8534   -43214.399    8.6228032 
    2550    214.86238   -245.45411    131818.06   -40586.991    2618.2166   -43205.208     8.822096 
    2600    211.91421   -58.225215    131701.09   -40659.542    2582.2915   -43241.834    8.9882103 
    2650    212.54471    28.373142    131678.62   -40634.177    2589.9745   -43224.151    9.0862866 
    2700    213.78678   -48.207981    131650.28   -40634.363    2605.1098   -43239.473    9.2674281 
    2750    210.74148    66.708642    131588.16   -40641.792    2568.0011   -43209.793    9.3526763 
    2800    216.77142   -12.528918     131638.6   -40606.084    2641.4792   -43247.563    9.5614593 
    2850    212.64914     54.80583    131674.91   -40634.362    2591.2471   -43225.609    9.7847355 
    2900    216.77954   -80.643587    131597.27    -40638.22    2641.5782   -43279.798     9.854775 
    2950    211.35338    59.844791    131690.46    -40648.69    2575.4575   -43224.147     9.902861 
    3000    216.42606    91.227558    131593.08   -40610.456    2637.2709   -43247.727    10.119714 
    3050     210.9836    8.1973123    131642.99   -40622.091    2570.9515   -43193.043    10.416363 
    3100    212.84149   -59.888245    131623.43   -40676.091     2593.591   -43269.682     10.64467 
    3150     214.5181     189.4868    131722.85    -40668.88    2614.0214   -43282.901    10.807803 
    3200    210.09776   -50.155403    131866.32   -40660.815    2560.1571   -43220.972    10.943469 
    3250    214.56128    215.11857    131979.23   -40609.751    2614.5475   -43224.298    11.028413 
    3300    215.70772    70.014428     132124.5   -40617.525    2628.5175   -43246.043    11.259874 
    3350    216.47734    44.497475    132138.88   -40617.906    2637.8958   -43255.801    11.472182 
    3400     211.1986    -38.13085    132156.17   -40591.353    2573.5714   -43164.925    11.639717 
    3450    217.71751    26.669319    132073.27   -40610.227    2653.0079   -43263.235    11.782539 
    3500    218.66422    108.09541    132148.95   -40594.414    2664.5441   -43258.958    11.928972 
    3550    215.75263    13.100028    132147.16   -40646.186    2629.0648   -43275.251     12.14534 
    3600    216.25841    41.567589    132098.46   -40614.749    2635.2279   -43249.977    12.390879 
    3650    220.74344    30.874574    132283.95   -40667.158    2689.8806   -43357.038    12.583017 
    3700    212.97416   -33.214652    132192.95   -40698.255    2595.2075   -43293.462    12.755784 
    3750    213.35764    63.537077    132136.25   -40721.727    2599.8805   -43321.608    12.798428 
    3800    210.55652   -148.71517     132054.5   -40711.458    2565.7473   -43277.206    12.952268 
    3850    216.46159   -64.329569    131920.38   -40656.088    2637.7039   -43293.792    13.112005 
    3900    212.45631     52.32838    132000.06   -40644.441    2588.8974   -43233.338    13.224617 
    3950    216.28103   -103.47898    131921.41   -40656.982    2635.5036   -43292.485    13.297332 
    4000    215.35829    114.52211    131888.53   -40601.878    2624.2596   -43226.138      13.3895 
    4050    221.20235   -119.99401    131862.67   -40597.866    2695.4727   -43293.338    13.595294 
    4100     219.0488    48.851641    131881.87   -40614.238    2669.2304   -43283.469    13.742168 
    4150    214.93727    120.37743       131913   -40610.079    2619.1292   -43229.208    13.874717 
    4200    218.03011    119.35386    131970.97   -40590.209    2656.8171   -43247.026    14.006676 
    4250     220.4921    63.913197    132074.64   -40535.114    2686.8179   -43221.932    14.155881 
    4300    218.23151    51.036338    132029.54   -40542.228    2659.2713   -43201.499    14.290125 
    4350    224.64914     2.546113    131990.99   -40547.005    2737.4737   -43284.479    14.356961 
    4400    219.58624   -13.655041    132059.55    -40586.33    2675.7795   -43262.109    14.464771 
    4450    218.37594    33.100693    132157.84   -40544.358    2661.0313    -43205.39    14.705723 
    4500    216.65908   -206.92444    132031.89   -40564.077    2640.1104   -43204.187    14.896836 
    4550    215.29094    16.370872    131887.89   -40541.557    2623.4389   -43164.996    14.968513 
    4600    217.71476   -6.4157187    131867.18   -40547.308    2652.9744   -43200.282    15.092157 
    4650    214.42904    136.13348    131959.87   -40558.081    2612.9361   -43171.018    15.360565 
    4700    217.13888   -151.33116    132007.63   -40547.096     2645.957   -43193.053     15.50252 
    4750    219.51201   -11.984892    131874.68   -40544.285    2674.8749    -43219.16    15.689957 
    4800     220.0506   -10.457044    131950.99   -40515.996    2681.4379   -43197.434     15.96891 
    4850    214.73313    78.702846    132056.35   -40612.617    2616.6417   -43229.259    16.189107 
    4900    212.04073   -45.490729     132143.2   -40639.787    2583.8333    -43223.62    16.342651 
    4950    214.55573   -3.1793578    132113.13   -40674.536    2614.4799   -43289.016    16.404092 
    5000    214.72497    14.203341     132193.5   -40657.231    2616.5422   -43273.773    16.458044 
    5050    216.32262   -60.156466    132142.23    -40626.53    2636.0105    -43262.54    16.626785 
    5100    215.01481   -194.96653    131971.92    -40621.87    2620.0741   -43241.944    16.841511 
    5150    215.84959    50.280962    131870.96   -40635.354    2630.2463     -43265.6    17.115752 
    5200    215.39327    199.65327    132089.58   -40646.082    2624.6858   -43270.768    17.312043 
    5250    218.36471   -148.90922     132124.4   -40648.626    2660.8944   -43309.521    17.438218 
    5300    214.36861    54.485894    132110.86   -40653.629    2612.1997   -43265.829    17.583166 
    5350    214.50808    57.402655    132136.24   -40663.155    2613.8993   -43277.055    17.756349 
    5400    215.54875   -112.56885    132021.52   -40723.177    2626.5803   -43349.757      17.9964 
    5450    213.28751    27.373767    131959.49   -40713.737    2599.0259   -43312.763    18.015471 
    5500    214.21467   -64.983033    131809.58   -40711.545    2610.3239   -43321.869    17.975679 
    5550    210.18144   -30.248414    131816.55   -40738.067    2561.1767   -43299.244    18.053144 
    5600    212.13825    113.28715    131746.72   -40736.028    2585.0215    -43321.05    18.277463 
    5650    211.91244   -36.345128    131725.11   -40732.566    2582.2699   -43314.836    18.445758 
    5700    211.67655   -7.8311375    131670.32   -40747.589    2579.3955   -43326.984    18.618402 
    5750    213.24686    63.297054    131587.69   -40760.821    2598.5305   -43359.352    18.797605 
    5800    213.86139   -25.491149    131588.26   -40734.577     2606.019   -43340.596     18.95882 
    5850    214.90513     23.64748    131497.82   -40644.329    2618.7376   -43263.066     19.14919 
    5900    217.66143    252.14437    131468.98   -40641.624    2652.3246   -43293.949    19.204592 
    5950    217.72287    93.287187    131665.19   -40631.554    2653.0732   -43284.628    19.430208 
    6000    214.67657    32.756403    131712.05    -40629.92    2615.9524   -43245.872    19.585829 
    6050    219.03512   -34.825315    131746.24    -40642.37    2669.0638   -43311.434    19.758224 
    6100     217.5314   -58.064814    131816.42   -40682.858    2650.7401   -43333.598    19.892161 
    6150      219.658   -3.7553026    131685.47   -40653.008    2676.6539   -43329.662    19.974892 
    6200    214.92686   -108.27364    131772.54   -40664.289    2619.0023   -43283.291    20.104581 
    6250    216.17832    72.301899    131796.13   -40662.958     2634.252    -43297.21    20.303292 
    6300    216.51956    92.474346    131772.04   -40675.194    2638.4103   -43313.604    20.344093 
    6350    210.93778   -24.563737       131783   -40759.062    2570.3932   -43329.456    20.316449 
    6400    212.64555    12.175459    131746.45   -40747.912    2591.2033   -43339.116    20.365115 
    6450    213.65565   -53.067403    131663.05   -40772.626    2603.5119   -43376.138    20.522034 
    6500    215.72157   -58.948016    131517.56   -40702.874    2628.6863   -43331.561    20.796098 
    6550    214.04635    58.730803    131660.45   -40698.913    2608.2728   -43307.186    20.888916 
    6600    214.99337   -24.774862     131594.8    -40710.49    2619.8127   -43330.302    20.933534 
    6650    212.73428   -54.105217     131561.2   -40735.063    2592.2845   -43327.347    21.097093 
    6700    217.42357    19.054221    131518.41   -40708.502    2649.4261   -43357.928     21.32382 
    6750    215.08381    110.27557    131651.17   -40702.248    2620.9149   -43323.162    21.634755 
    6800    215.63912    8.9124939    131689.92   -40682.909    2627.6816   -43310.591    21.718108 
    6850    217.59536    93.901817    131653.43   -40696.408    2651.5195   -43347.927    21.975782 
    6900    213.67002   -115.44332    131734.84   -40698.769     2603.687   -43302.456    22.279012 
    6950    215.40388   -10.984663    131488.28   -40674.053    2624.8151   -43298.868    22.344306 
    7000    215.32918   -194.12321    131359.59   -40665.519    2623.9048   -43289.424    22.502751 
    7050      216.526    155.39313    131307.97   -40660.996    2638.4887   -43299.485    22.681092 
    7100    215.69129    40.808386    131401.87   -40659.067    2628.3174   -43287.384     22.86069 
    7150    216.31794    71.490008    131437.06   -40665.685    2635.9534   -43301.638    23.014027 
    7200    220.57626   -18.643983    131685.59   -40626.089    2687.8433   -43313.932    23.149338 
    7250    217.29316   -108.59718    131817.02    -40609.64     2647.837   -43257.477    23.331148 
    7300    211.93627   -86.914112    131560.67   -40627.373    2582.5603   -43209.933    23.577268 
    7350    219.64089    207.40721    131580.47   -40569.188    2676.4454   -43245.634    23.868749 
    7400    215.07049   -60.910535    131704.54   -40622.205    2620.7525   -43242.958    23.963218 
    7450    216.37741   -10.250319     131674.7    -40613.66    2636.6781   -43250.338    24.057327 
    7500    218.81408    50.477788    131880.81    -40611.01    2666.3702    -43277.38    24.361207 
    7550    218.23121   -47.792731    131855.93   -40621.801    2659.2677   -43281.069    24.478732 
    7600    219.96411   -6.4288822    131832.58   -40631.041     2680.384   -43311.425     24.54488 
    7650    218.93248   -11.371424    131928.02   -40641.806     2667.813   -43309.619    24.734805 
    7700    218.15433   -115.88885    131932.98   -40608.255    2658.3308   -43266.586    24.797556 
    7750    215.39539    62.044513    131901.16   -40685.015    2624.7116   -43309.726    24.817452 
    7800    216.16479   -109.58555    131895.84   -40672.641    2634.0872   -43306.728     25.00002 
    7850    212.43521   -134.34017    131732.31   -40667.986    2588.6401   -43256.626     25.23788 
    7900    215.14423    85.257654    131638.47   -40698.476     2621.651   -43320.127    25.352821 
    7950    213.49534   -85.379199     131630.6   -40685.559    2601.5585   -43287.118    25.534702 
    8000    215.11647   -45.882262    131592.35   -40696.741    2621.3128   -43318.054     25.75473 
    8050    216.30423    142.53387    131527.49   -40685.468    2635.7863   -43321.254    25.797676 
    8100    214.26079   -49.852343    131662.74   -40666.347    2610.8859   -43277.233    25.922975 
    8150    216.08857    1.7222844    131648.82   -40690.483    2633.1584   -43323.642    25.993954 
    8200    217.09588    94.936363    131635.83   -40697.448     2645.433   -43342.881    26.222834 
    8250    212.41762    22.989245    131871.11   -40731.765    2588.4259   -43320.191    26.329808 
    8300     211.7697    19.836735    131974.32   -40714.729    2580.5306   -43295.259    26.553582 
    8350    215.39724   -23.011423    131930.58   -40685.944    2624.7341   -43310.678    26.653792 
    8400    218.71207    148.43677    132013.16   -40664.808    2665.1272   -43329.935     26.90717 
    8450    213.55633   -63.282242    131954.55   -40732.409    2602.3016   -43334.711    27.089377 
    8500    212.42469    1.4225852       131900   -40767.469     2588.512   -43355.981    27.068121 
    8550    215.82833    80.794713    131913.59   -40741.562    2629.9873   -43371.549    27.159058 
    8600    211.45307   -15.765781    131813.08   -40729.835    2576.6722   -43306.508    27.320265 
    8650    211.69794    40.995618       131785    -40748.26    2579.6562   -43327.916     27.46614 
    8700    214.34752   -6.7391856    131779.69   -40714.605    2611.9427   -43326.548    27.518829 
    8750    214.61421    58.758169    131646.54   -40720.463    2615.1925   -43335.655    27.723428 
    8800    207.98131   -88.456242    131684.55   -40745.261    2534.3669   -43279.628    27.872522 
    8850    214.25681    63.602332    131644.32   -40702.342    2610.8374   -43313.179    27.999437 
    8900    214.28079    159.12502    131796.46    -40734.05    2611.1296    -43345.18    28.172838 
    8950    211.88085    27.605235    131876.53   -40776.519     2581.885   -43358.404    28.347244 
    9000    213.53913    15.890769    131996.46   -40730.956    2602.0921   -43333.048    28.500787 
    9050     212.1972   -63.047869    132033.68   -40713.035    2585.7399   -43298.775    28.756008 
    9100    212.39611    161.13591    132072.24   -40731.312    2588.1637   -43319.476    28.918817 
    9150     215.1156   -79.681109    132121.07   -40725.422    2621.3022   -43346.724    29.008451 
    9200    214.12648    15.135732    132110.28   -40699.315    2609.2493   -43308.564    29.245279 
    9250    212.26856   -42.887543    132099.38   -40697.168    2586.6095   -43283.777    29.441252 
    9300    214.12831  -0.73950122     132089.9   -40725.766    2609.2715   -43335.038    29.508746 
    9350    214.66235    93.337685    132093.44   -40726.245    2615.7791   -43342.024    29.539898 
    9400    219.43871    42.683785     132101.4   -40748.574    2673.9817   -43422.556    29.708736 
    9450    211.00632    51.085471    132189.71   -40802.967    2571.2284   -43374.195    29.805715 
    9500    212.29474    66.408627    132157.79   -40777.859    2586.9285   -43364.788    29.978639 
    9550    211.75648    146.80627    132309.02   -40766.927    2580.3695   -43347.297    30.140688 
    9600    210.36127   -128.44384    132233.46    -40806.63    2563.3681   -43369.998     30.34447 
    9650    212.08795    35.008065    132164.22   -40778.569    2584.4086   -43362.978    30.390803 
    9700    211.81734    -202.7978    132189.09   -40775.517    2581.1111   -43356.628    30.526039 
    9750     211.6353   -14.088847    132152.12   -40751.431    2578.8929   -43330.324     30.72791 
    9800    213.01339   -3.6755955    132080.75   -40720.441    2595.6857   -43316.126    30.806318 
    9850    217.49098    177.81876    132191.99   -40696.416    2650.2476   -43346.664    30.915587 
    9900    212.82011    119.85735    132372.45   -40710.495    2593.3304   -43303.825    31.051039 
    9950    215.26379    -101.6194    132404.48   -40671.772    2623.1079    -43294.88    31.169079 
   10000    214.07355   -55.864857    132260.65   -40700.657    2608.6043   -43309.262    31.272141 
   10050    219.20599    43.646173    132304.07   -40702.518    2671.1459   -43373.664    31.420037 
   10100    214.31161   -131.13537    132207.51   -40736.455    2611.5051   -43347.961    31.455724 
   10150    213.27857   -14.003878    132220.38   -40663.138    2598.9169   -43262.055    31.668848 
   10200    217.46244    52.781671    132272.08   -40648.514    2649.8998   -43298.414    31.756345 
   10250    216.87713   -22.647799    132195.34   -40658.516    2642.7675   -43301.283    31.961899 
   10300    213.18872   -20.186734    132185.59    -40724.31    2597.8221   -43322.132    32.116984 
   10350    215.16106   -2.4556632    132119.46   -40754.956    2621.8561   -43376.812    32.336292 
   10400    212.77743    29.727888    132147.49   -40740.373    2592.8103   -43333.183    32.580437 
   10450    210.78268   -43.614373    132078.85   -40774.146    2568.5032   -43342.649    32.594066 
   10500    214.28603     172.4494     132109.2   -40752.291    2611.1935   -43363.484     32.71309 
   10550    217.39334     39.28145    132122.69   -40738.327    2649.0577   -43387.385    32.929504 
   10600    216.61708    26.566902    132142.87   -40712.055    2639.5986   -43351.653    33.106391 
   10650    215.60777    21.403748    132207.85    -40728.84    2627.2996    -43356.14    33.171437 
   10700    215.48704   -81.214568    132186.51   -40708.539    2625.8284   -43334.368    33.341348 
   10750    214.28358    155.61866    132250.94   -40711.397    2611.1636   -43322.561    33.384437 
   10800    213.14058   -2.4913831    132257.19   -40730.512    2597.2355   -43327.748    33.490107 
   10850    209.61289   -61.522398    132306.15   -40759.401    2554.2486   -43313.649    33.597307 
   10900    213.49177   -54.414571    132227.16   -40743.982     2601.515   -43345.497    33.593219 
   10950    211.42435   -13.213988    132155.35   -40754.672    2576.3224   -43330.995     33.74327 
   11000    218.49828   -124.65658    131991.11   -40729.395    2662.5221   -43391.917    34.013707 
   11050     215.2241    15.261016    132047.82   -40713.069    2622.6244   -43335.694    34.300567 
   11100    215.34738   -144.51774    132024.22   -40774.065    2624.1266   -43398.192    34.337157 
   11150    212.83271    65.297306    132051.95   -40786.924     2593.484   -43380.408    34.437415 
   11200    216.45744    38.184516    132163.57   -40723.245    2637.6533   -43360.899    34.509315 
   11250    213.94606    94.375895    132160.65   -40708.275    2607.0508   -43315.325    34.661168 
   11300    212.72037   -133.99824     132196.7   -40750.765     2592.115    -43342.88    34.822107 
   11350    217.21998   -110.68078    132032.23   -40750.043    2646.9452   -43396.988    34.945381 
   11400    214.59702    3.5824233    131831.46    -40763.92     2614.983   -43378.903    35.002324 
   11450     215.5306   -116.42827    131786.19   -40740.679    2626.3592   -43367.039    35.117152 
   11500     217.4842   -93.010522    131812.09   -40709.523    2650.1649   -43359.688    35.266953 
   11550    215.84535    34.337174    131802.23   -40705.092    2630.1946   -43335.287    35.510103 
   11600    214.36281    83.119221    131762.02   -40712.436    2612.1291   -43324.565    35.640119 
   11650    211.78381    226.22903    131909.43   -40726.316    2580.7026   -43307.018    35.727892 
   11700    216.69341   -47.407159    131930.63   -40704.802    2640.5287    -43345.33    35.827583 
   11750    215.36926   -96.152431     131956.4   -40685.834    2624.3932   -43310.228    36.027867 
   11800    215.50889    -23.17135    131893.69   -40637.571    2626.0947   -43263.665    36.194061 
   11850    214.89866   -58.931553    131710.75   -40588.396    2618.6587   -43207.055    36.373391 
   11900    216.03323   -81.513229    131734.61   -40584.654     2632.484   -43217.138    36.711265 
   11950    216.06768    93.377809    131738.38   -40567.525    2632.9039   -43200.429    36.855451 
   12000    214.83156    63.378537    131815.56   -40561.367    2617.8411   -43179.208    36.956957 
   12050    215.03693   -42.413067    131933.63   -40547.158    2620.3436   -43167.502     37.18374 
   12100     217.3969    55.042123    131952.57   -40503.499    2649.1011     -43152.6    37.380658 
   12150    213.60037   -107.50445    131870.78   -40557.835    2602.8383   -43160.673    37.542107 
   12200    211.38166    23.437107    131744.51    -40601.33    2575.8021   -43177.132    37.854812 
   12250    217.20644    124.16156    131774.98   -40581.312    2646.7803   -43228.092    37.997853 
   12300    217.85015   -2.4714077    131767.81   -40583.609    2654.6242   -43238.233    38.174217 
   12350    214.86672   -11.570055     131834.2   -40538.957    2618.2695   -43157.227    38.456826 
   12400    215.21672   -34.634441     131889.3   -40541.293    2622.5345   -43163.827    38.619772 
   12450    213.74215   -51.389969    131833.52   -40559.552    2604.5659   -43164.118    38.687016 
   12500    216.12829   -25.947847    131683.39   -40548.698    2633.6424   -43182.341    38.840522 
   12550    213.17477    15.935453    131635.49   -40567.022    2597.6521   -43164.674     39.01567 
   12600    211.99483   -78.694966    131601.79   -40574.496    2583.2739    -43157.77    39.226219 
   12650    213.18762   -92.029124    131542.99   -40592.854    2597.8088   -43190.663    39.285855 
   12700    215.08009   -179.75256    131412.54   -40612.448    2620.8696   -43233.317    39.275314 
   12750    215.62023    64.721318    131483.25   -40618.934    2627.4514   -43246.386    39.412442 
   12800    212.23816    128.74519    131543.75   -40595.851    2586.2391    -43182.09    39.515118 
   12850    215.93652   -135.67472    131427.96   -40562.123    2631.3055   -43193.428    39.755127 
   12900    217.90229    36.546712    131388.56    -40516.89    2655.2595    -43172.15    39.954268 
   12950    214.20744    128.33464    131552.67   -40542.431    2610.2358   -43152.667     40.12699 
   13000     215.1443     43.82617     131708.3   -40549.715     2621.652   -43171.367    40.183964 
   13050    215.59428   -64.871147    131686.66   -40511.736    2627.1352   -43138.871    40.351735 
   13100    223.78431    -82.81439    131606.76   -40458.483    2726.9353   -43185.418     40.64972 
   13150    216.89259    107.71137    131564.11   -40491.134    2642.9558    -43134.09    40.845967 
   13200    219.80336   -39.422241    131577.74   -40513.142    2678.4252   -43191.567    41.081241 
   13250     218.3297   -146.99789       131434   -40530.076    2660.4678   -43190.544    41.234795 
   13300    218.75527    64.803379    131533.43   -40592.894    2665.6536   -43258.547      41.4093 
   13350    215.08889     75.86365    131572.05   -40612.544    2620.9767   -43233.521    41.551366 
   13400    214.58429    70.082268    131684.23   -40577.512    2614.8279    -43192.34    41.760438 
   13450    215.76569    22.677203    131758.66   -40588.468    2629.2239   -43217.692    41.893725 
   13500    212.30724    41.990923    131872.53   -40567.136    2587.0807   -43154.217    42.185249 
   13550    214.65594    188.48897    131905.96   -40566.011     2615.701   -43181.712    42.273885 
   13600     215.2334   -149.32127    131835.74   -40619.181    2622.7377   -43241.919    42.436219 
   13650    214.77429   -30.660954    131634.97   -40644.218    2617.1431   -43261.361    42.563184 
   13700    212.26544    105.39134    131728.09   -40686.337    2586.5714   -43272.909    42.660853 
   13750    212.47497   -112.87884    131711.44   -40677.629    2589.1247   -43266.754    42.947742 
   13800    209.88809    135.13388     131682.8   -40688.991    2557.6022   -43246.593    43.065002 
   13850    211.52104   -172.60372    131741.49   -40710.177    2577.5005   -43287.678    43.209755 
   13900    209.77422    -87.41416     131689.4   -40711.298    2556.2146   -43267.512    43.409926 
   13950    213.79221   -119.98135     131637.6   -40660.958     2605.176   -43266.134    43.547981 
   14000    215.05415   -72.685305    131628.48   -40639.559    2620.5534   -43260.113    43.636812 
   14050    212.77253   -126.93542     131674.2   -40680.639    2592.7506   -43273.389    43.635257 
   14100    210.37287    48.897647    131718.29   -40677.832    2563.5095   -43241.341     43.87115 
   14150     210.5581     9.710969    131726.89   -40654.155    2565.7666   -43219.922    44.187347 
   14200    213.47319    71.365551    131810.39   -40680.355    2601.2886   -43281.644    44.575821 
   14250    212.08814   -17.977148    131925.55   -40674.934    2584.4109   -43259.345    44.839644 
   14300    210.17869    28.647946     132114.5   -40679.398    2561.1432   -43240.541    45.098743 
   14350    209.27855    24.423471    132073.17   -40673.687    2550.1745   -43223.861    45.517809 
   14400    210.35315    101.05044    132108.88   -40631.438    2563.2691   -43194.707    45.574485 
   14450    214.67584    41.832495    132163.11   -40595.191    2615.9436   -43211.134    45.598295 
   14500    218.71891   -7.5385675    132128.26   -40571.175    2665.2106   -43236.386    45.897205 
   14550    216.64666     125.1962    132034.84   -40619.225     2639.959   -43259.184    45.989066 
   14600    214.96157    -129.7851    132108.31   -40623.099    2619.4252   -43242.524    46.284901 
   14650    217.12038     44.77365     132120.2   -40630.207    2645.7316   -43275.939    46.426806 
   14700    216.46859   -8.1969125    132162.82   -40683.418    2637.7892   -43321.207    46.587367 
   14750    213.53465    -6.240296    132125.52   -40673.284    2602.0375   -43275.322    46.723979 
   14800    215.18142    82.115666    132156.12   -40661.372    2622.1043   -43283.476    46.891623 
   14850    217.13034   -96.367627    132145.64   -40668.229     2645.853   -43314.082    46.953648 
   14900    216.78501   -66.192851    131984.94   -40690.549    2641.6449   -43332.194     46.92069 
   14950    217.77174   -178.23792     131819.2   -40726.523    2653.6687   -43380.192    47.102693 
   15000     218.4676    138.48503    131785.58   -40687.844    2662.1482   -43349.992    47.094733 
   15050     212.7853   -27.234508    131877.74    -40686.16    2592.9063   -43279.066    47.203287 
   15100    216.58399    28.840229    132005.43   -40722.242    2639.1953   -43361.437    47.247716 
   15150    217.37136    68.427402    132060.31   -40714.309    2648.7899   -43363.099    47.394624 
   15200    217.66878    9.9099263    132127.38    -40692.12    2652.4141   -43344.534     47.49271 
   15250     218.1432   -90.472067    131938.87   -40698.803    2658.1952   -43356.998     47.70183 
   15300    212.51956   -59.893798    132078.27    -40742.28    2589.6681   -43331.948    47.920578 
   15350    216.84524    25.422202    132053.61   -40718.696    2642.3789   -43361.075    48.085094 
   15400    215.87006   -133.68625    132029.81   -40660.676    2630.4958   -43291.172    48.223905 
   15450    215.38355    107.30284    132039.49   -40714.159    2624.5674   -43338.726    48.479662 
   15500     214.8251    213.04285    132190.26   -40720.913    2617.7623   -43338.675    48.591658 
   15550    217.77833   -140.35752     132169.5   -40718.204    2653.7491   -43371.953    48.741308 
   15600    212.56137   -36.632751    132042.75   -40761.083    2590.1775    -43351.26    48.846282 
   15650     213.3902    68.825005    132037.98   -40778.041    2600.2773   -43378.319    48.926578 
   15700    216.02975    46.347944    132120.98   -40804.341    2632.4417   -43436.783    48.944122 
   15750    212.55688    20.989009    132085.47   -40792.336    2590.1228   -43382.459    48.995122 
   15800    214.02098    11.176518    132197.03   -40788.272    2607.9637   -43396.236     49.25751 
   15850    214.64175    17.511607     132236.2   -40726.309    2615.5281   -43341.837    49.566133 
   15900    216.96774   -27.579226    132323.22   -40737.084    2643.8715   -43380.956    49.510399 
   15950    216.77933     96.11864    132334.21   -40727.141    2641.5756   -43368.717    49.564035 
   16000    216.87311   -19.759653    132247.37   -40726.763    2642.7184   -43369.482    49.602882 
   16050    214.98677    99.954715       132386   -40720.025    2619.7324   -43339.757     49.65711 
   16100    215.43929   -34.456469    132454.89   -40674.206    2625.2465   -43299.453    49.760753 
   16150    214.62131   -118.48887    132292.15   -40687.018     2615.279   -43302.297    50.084186 
   16200    216.55799    126.34631    132302.88    -40661.81    2638.8786   -43300.688    50.176515 
   16250    216.10032   -88.187886    132359.82   -40617.145    2633.3016   -43250.447    50.144159 
   16300    218.00141    96.799287    132292.24   -40628.093    2656.4674    -43284.56    50.523042 
   16350     210.0974   -64.725772    132199.14    -40717.91    2560.1527   -43278.063    50.628394 
   16400    212.01909    37.020862    132211.47    -40756.16    2583.5696   -43339.729    50.662375 
   16450    215.34599     124.9863    132254.24    -40740.25    2624.1096   -43364.359    50.782406 
   16500    215.44794   -14.339255    132383.95   -40746.549    2625.3519   -43371.901     50.84613 
   16550    212.00721   -55.135237    132354.44    -40767.32    2583.4247   -43350.745    50.921526 
   16600    217.39857    4.1948402    132279.13   -40739.583    2649.1214   -43388.704     51.04869 
   16650    218.57246    183.07422     132301.2   -40729.907     2663.426   -43393.333    51.156202 
   16700    220.16776   -71.969278    132290.39   -40736.967    2682.8656   -43419.832    51.174998 
   16750    213.82662   -124.75939    132151.71   -40748.422    2605.5953   -43354.017    51.392593 
   16800     216.2641    79.316393    132128.07   -40720.417    2635.2973   -43355.714    51.576909 
   16850    215.63187    -15.31697    132250.24   -40738.797    2627.5933    -43366.39    51.646875 
   16900    214.66399   -24.364909    132164.97    -40751.16    2615.7991   -43366.959    51.732014 
   16950     211.2852    68.886375    132169.96   -40744.129    2574.6267   -43318.756    51.919708 
   17000    214.05113    53.849024    132119.86   -40748.218    2608.3311   -43356.549    51.969591 
   17050    219.37724   -57.471258    132154.05   -40696.786    2673.2326   -43370.018    52.098267 
   17100    215.17508   -22.177318    132165.28   -40707.521     2622.027   -43329.548     52.16755 
   17150    218.89905   -1.6383342     132132.1   -40722.462    2667.4057   -43389.868    52.341684 
   17200    218.64532   -208.28025    132111.43   -40696.292    2664.3138   -43360.606    52.458406 
   17250    217.64822   -10.900762     132094.5   -40721.677    2652.1636    -43373.84    52.614823 
   17300    221.61321    42.527355    132123.71    -40699.01    2700.4791    -43399.49    52.754346 
   17350    214.78278   -109.63077    132119.74   -40693.087    2617.2466   -43310.334    52.870533 
   17400    212.01521   -62.192817    132006.82   -40728.559    2583.5223   -43312.081    52.911637 
   17450    215.32682    3.7769163    131939.99   -40743.773    2623.8761   -43367.649    52.908542 
   17500    215.71728   -130.59203    131800.45    -40777.91    2628.6341   -43406.544    53.077475 
   17550    216.65076   -41.375582    131831.64   -40762.091    2640.0089     -43402.1    53.004936 
   17600    217.43922    2.2023328    131855.56    -40776.48    2649.6168   -43426.097    52.872732 
   17650    218.65589    102.00739    131979.69   -40757.344    2664.4426   -43421.787    52.950673 
   17700    220.66407   -18.964099    132081.86   -40723.377    2688.9134    -43412.29    53.016017 
   17750    218.83346   -49.664799    132198.21   -40711.092    2666.6063   -43377.699    53.126052 
   17800    216.79699   -30.143117    132225.84   -40719.103    2641.7909   -43360.893    53.101883 
   17850    212.62423   -53.479899    132152.61    -40720.17    2590.9435   -43311.113    52.982345 
   17900    216.83855    -90.73082    132135.45   -40688.548    2642.2973   -43330.846    53.006902 
   17950    218.10066    19.507784    132199.71   -40644.604    2657.6768    -43302.28    53.153051 
   18000     216.1915   -58.939855    132048.73   -40704.366    2634.4126   -43338.779    53.188488 
   18050    214.58527   -2.7840063    131943.09    -40762.63    2614.8398    -43377.47    53.502816 
   18100    221.48579   -85.681193    131911.94   -40727.828    2698.9265   -43426.755    53.593871 
   18150    211.59172   -8.6733682    131916.39   -40780.943    2578.3618   -43359.304    53.471754 
   18200    212.21304    30.562066    131879.97   -40805.002    2585.9329   -43390.935    53.463557 
   18250    211.81257    23.399459    131881.14   -40822.377     2581.053    -43403.43    53.599028 
   18300    211.38211    228.70185    132088.03   -40828.427    2575.8076   -43404.234    53.869072 
   18350     216.5926    157.81832     132181.4   -40770.156    2639.3003   -43409.456    53.940457 
   18400    211.73433    30.945297    132139.08   -40822.374    2580.0995   -43402.474    54.182462 
   18450    213.58699    71.035929    132072.17   -40809.739    2602.6752   -43412.414    54.220495 
   18500    212.88652    15.772802    132026.31   -40799.381    2594.1397   -43393.521    54.398871 
   18550    215.68967   -107.76359     131984.6   -40774.993    2628.2976    -43403.29    54.421131 
   18600    210.91318   -264.94034     131907.6   -40771.288    2570.0934   -43341.381    54.625802 
   18650    212.92199    131.78588    131726.18   -40783.619    2594.5719   -43378.191    54.961628 
   18700    218.15432   -46.674251    131771.91   -40729.283    2658.3307   -43387.614     55.01535 
   18750    217.65689   -112.77386    131703.34   -40713.772    2652.2692   -43366.041    55.096886 
   18800    215.54207   -13.143583    131724.83     -40746.2    2626.4991   -43372.699    55.265647 
   18850    213.41312   -36.849758    131591.93   -40744.986    2600.5566   -43345.542    55.265301 
   18900    214.40795    -94.10717    131599.65   -40768.638    2612.6791   -43381.317    55.315245 
   18950    216.82812    230.90803    131715.88   -40773.587    2642.1702   -43415.757    55.548817 
   19000    213.78882    113.10821    131792.47   -40778.714    2605.1347   -43383.848    55.808689 
   19050    216.66412   -24.769151    131805.73   -40784.359    2640.1718   -43424.531    55.767073 
   19100    216.12685     128.6244    131971.34   -40805.081    2633.6249   -43438.706    55.709482 
   19150    213.09463    133.06486    131928.76   -40822.503    2596.6756   -43419.179    55.918543 
   19200    212.11467   -51.437245    131925.78   -40812.528    2584.7342   -43397.263    56.079829 
   19250    208.56819    56.352106    131759.76   -40874.147    2541.5184   -43415.665    56.089103 
   19300    208.06028   -22.148829    131684.13   -40908.099    2535.3293   -43443.428    56.176755 
   19350    214.14534    206.89181    131857.16   -40868.308    2609.4791   -43477.787    56.598193 
   19400    211.87892   -34.301128    131951.64   -40852.334    2581.8614   -43434.195    56.560718 
   19450    215.87291    32.393127    131828.88   -40822.223    2630.5304   -43452.753    56.611944 
   19500    218.26759    158.50422    131901.39    -40763.89    2659.7109   -43423.601    56.936524 
   19550     217.1696   -109.46128    131893.14   -40795.422    2646.3314   -43441.753    57.263755 
   19600    215.24487    83.079073    131928.35   -40794.063    2622.8774   -43416.941    57.511306 
   19650    216.38673    75.825915     131913.2   -40747.225    2636.7916   -43384.016    57.427588 
   19700    219.41704    36.997623    132054.83   -40725.296    2673.7176   -43399.013     57.50824 
   19750    222.00706    189.48685    132236.86   -40656.467    2705.2784   -43361.746    57.602235 
   19800     220.4016    86.917681    132346.78   -40630.824     2685.715   -43316.539     57.69971 
   19850    221.69859    -59.92233    132448.41   -40630.978    2701.5195   -43332.497     57.74976 
   19900    218.78483   -159.51883    132233.59   -40693.382    2666.0137   -43359.396     57.90885 
   19950    215.97019   -135.71129    132062.91   -40746.007    2631.7159   -43377.723    58.001403 
   20000    216.38796    154.68843    132050.75   -40728.458    2636.8067   -43365.264    58.017382 
   20050    214.60669     95.75767    132113.49   -40721.245    2615.1008   -43336.346    58.253336 
   20100    211.99274    129.61028    132081.45   -40763.289    2583.2484   -43346.537    58.336874 
   20150    209.46754    5.7497199    132068.41   -40790.778    2552.4775   -43343.256    58.545816 
   20200    213.41712    97.666755    132091.77    -40761.11    2600.6053   -43361.715    58.479157 
   20250    209.23147   -91.547193    132093.51   -40793.891    2549.6008   -43343.492    58.514737 
   20300     214.7945     19.56924    132059.84   -40728.281    2617.3894    -43345.67     58.51382 
   20350    219.46672   -97.157293    132043.47   -40767.133     2674.323   -43441.456    58.504901 
   20400    215.53786   -70.622165    132015.91   -40728.483    2626.4477   -43354.931    58.735163 
   20450    215.42366    7.7574882    131989.14   -40768.071    2625.0562   -43393.127    59.222639 
   20500    212.42507    77.892781     131868.1   -40755.735    2588.5166   -43344.252    59.422792 
   20550    214.78853   -133.88101    131779.31   -40765.994    2617.3167   -43383.311    59.373022 
   20600    212.84396   -17.167143    131810.87   -40760.165    2593.6211   -43353.786    59.437282 
   20650    214.92852    44.067066     131839.9   -40748.563    2619.0226   -43367.586    59.756265 
   20700    213.67068   -48.666048    131721.02   -40777.315    2603.6951    -43381.01    59.799055 
   20750    210.37266     2.703302    131703.71   -40805.917    2563.5069   -43369.424    59.892665 
   20800    212.06229    149.49451    131868.36   -40720.135     2584.096   -43304.231    60.043452 
   20850    213.52531   -130.32652    131919.67    -40622.94    2601.9236   -43224.863    60.089999 
   20900    219.12775   -119.67282    131832.21   -40593.237    2670.1924    -43263.43    60.253467 
   20950     212.7393    116.80446    131732.31    -40646.95    2592.3456   -43239.296    60.169828 
   21000    214.16781   -109.60703    131713.78   -40641.689    2609.7529   -43251.442    60.043746 
   21050    217.95565   -55.517588     131702.1   -40607.046    2655.9098   -43262.955    60.209315 
   21100    213.83696    47.737639    131718.73   -40708.215    2605.7213   -43313.936    60.565799 
   21150     211.3592   -185.34086    131740.88    -40737.39    2575.5285   -43312.918    60.614168 
   21200    208.39795   -34.150721     131468.7   -40758.418    2539.4439   -43297.862    60.462858 
   21250    217.52371    234.78467    131559.76   -40776.915    2650.6464   -43427.561    60.374742 
   21300    210.38327   -38.210934    131782.76    -40828.37    2563.6361   -43392.007    60.682498 
   21350    210.84172    -40.63499    131597.61   -40855.002    2569.2226   -43424.225    60.652403 
   21400    209.56665    1.3126254    131665.77   -40812.117    2553.6852   -43365.802    60.647424 
   21450    209.30349   -33.122891    131614.26   -40809.212    2550.4784   -43359.691    60.875206 
   21500    209.37006    121.90799    131765.22   -40831.003    2551.2897   -43382.292    60.948628 
   21550    207.38456    15.775511    131748.11   -40824.727    2527.0952   -43351.822    61.190044 
   21600    212.70054   -116.74182    131740.08   -40770.726    2591.8734   -43362.599    61.305826 
   21650    216.86236    108.70618    131798.17   -40726.802    2642.5875   -43369.389    61.418688 
   21700    211.48498    11.718503    131883.17   -40785.192    2577.0611   -43362.253    61.600527 
   21750    212.35884    17.726892    131988.66   -40786.516    2587.7096   -43374.225    61.735699 
   21800    217.13996   -15.093463    131984.89   -40730.184    2645.9702   -43376.154    61.955378 
   21850    214.89066  -0.47800641    132106.34   -40742.724    2618.5612   -43361.285    62.069612 
   21900    210.45898   -1.8280657    132214.48   -40732.901    2564.5588    -43297.46    62.217388 
   21950    212.74359    83.015208    132179.19    -40765.28     2592.398   -43357.677    62.440509 
   22000    218.09112   0.24094747    132266.06   -40752.078    2657.5606   -43409.638    62.554955 
   22050    213.51578   -63.037455     132372.8    -40711.81    2601.8075   -43313.617    62.643321 
   22100    212.46786   -73.346342    132323.89   -40712.352     2589.038    -43301.39    62.616973 
   22150    212.54926   -24.751157    132191.67   -40709.899    2590.0299   -43299.929    62.638022 
   22200       219.21    61.734034    132330.76   -40691.641    2671.1947   -43362.836     62.90669 
   22250    216.46597    98.769673    132299.05   -40679.911    2637.7573   -43317.668    62.934413 
   22300    212.68207   -207.36906    132108.01   -40691.402    2591.6483    -43283.05    63.172895 
   22350    214.54387    1.9489986    132063.28   -40684.994    2614.3354   -43299.329    63.329616 
   22400    220.20925   -4.7501783     132184.5   -40680.506    2683.3711   -43363.877    63.364299 
   22450    216.86663    53.239012    132258.07   -40662.609    2642.6395   -43305.249    63.497079 
   22500    214.99942   -30.024114    132206.62   -40706.149    2619.8865   -43326.035     63.63181 
   22550    218.07424   -128.99653    132228.31   -40718.022    2657.3549   -43375.377    63.930516 
   22600    213.06705    38.547536    132073.87   -40701.983    2596.3395   -43298.323    64.045081 
   22650      215.222   -8.0931041    132125.46   -40704.999    2622.5987   -43327.598    63.890491 
   22700    212.69561    102.07457    132269.14   -40714.071    2591.8133   -43305.884    64.073002 
   22750    212.98207    126.64388     132329.5    -40713.62     2595.304   -43308.924    64.355625 
   22800    213.16648    125.22937    132401.64   -40655.638    2597.5511   -43253.189    64.467129 
   22850    218.62521   -19.102268    132337.55   -40675.611    2664.0687    -43339.68     64.50401 
   22900    213.73964   -18.735101    132515.78   -40711.199    2604.5353   -43315.735    64.555931 
   22950     215.8016    151.14387    132564.65   -40716.169    2629.6615   -43345.831    64.789664 
   23000    215.60324    74.671023    132574.24   -40672.582    2627.2444   -43299.826    65.221694 
   23050    211.36084   -197.05646    132549.97   -40640.037    2575.5484   -43215.586    65.406772 
   23100    213.66812     98.04934    132474.15   -40660.851    2603.6638   -43264.515     65.55669 
   23150    214.64625   -13.103847     132515.4   -40623.738    2615.5829   -43239.321    65.812559 
   23200    212.56776   -85.541579    132385.47    -40643.53    2590.2553   -43233.785    65.671972 
   23250    214.71705    119.82231    132406.96   -40628.722    2616.4457   -43245.168    65.649358 
   23300    213.01585   0.83657005    132246.94   -40610.647    2595.7157   -43206.363    65.662624 
   23350    212.96971   -18.264815    132296.37   -40619.258    2595.1534   -43214.411    65.865613 
   23400    211.19124   -86.826959    132204.13   -40609.708    2573.4817    -43183.19    65.821223 
   23450    213.05953   -206.69974    132094.21   -40630.586    2596.2479   -43226.834    66.001273 
   23500    212.04657   -223.32724    132054.41   -40640.629    2583.9044   -43224.533    66.089652 
   23550    210.25405   -2.1139729    131920.59   -40651.919    2562.0615   -43213.981    66.221856 
   23600    210.07535   -23.418729    131898.46   -40665.412     2559.884   -43225.296    66.358159 
   23650    214.15359    66.670697     131936.2   -40619.861    2609.5796   -43229.441    66.533106 
   23700    215.72932   -74.501285    131971.97   -40634.863    2628.7808   -43263.644    66.718278 
   23750     211.9276   -51.804014    132015.31   -40620.434    2582.4547   -43202.889    66.795087 
   23800    216.76105    3.6724844    131999.41   -40639.612    2641.3529   -43280.965    67.160393 
   23850    215.92787    29.174642    132148.89   -40602.002    2631.2002   -43233.202    67.369201 
   23900    219.74775   -98.975408    132119.47   -40570.503    2677.7475    -43248.25    67.532433 
   23950     215.1447    110.01774    131960.91   -40566.643    2621.6568     -43188.3    67.591206 
   24000     214.3902   -49.324728    132004.14   -40571.249    2612.4628   -43183.711    67.761219 
   24050    215.27199    83.277072    131982.82   -40603.416    2623.2079   -43226.624    68.067734 
   24100    214.05547    141.04642    132124.25   -40612.716    2608.3839     -43221.1    68.108497 
   24150    211.02579   -107.53251    132048.04   -40666.783    2571.4656   -43238.248    68.522187 
   24200     212.2277    99.651133    131969.99   -40603.955    2586.1116   -43190.067    68.774305 
   24250    213.15227   -72.932901     131983.5   -40583.097    2597.3779   -43180.475    68.880039 
   24300    212.30028    137.97359    132033.92   -40608.796     2586.996   -43195.792    69.034684 
   24350    215.16924   -140.68591    132065.76   -40591.893    2621.9558   -43213.848    69.372832 
   24400    218.81077   -69.791935    131992.66   -40625.218    2666.3299   -43291.548    69.367192 
   24450    217.72045    94.518817    132060.15   -40600.061    2653.0438   -43253.105    69.457841 
   24500    215.15123   -49.703349     132145.4   -40559.926    2621.7364   -43181.663    69.769012 
   24550    218.92893    16.532054    132180.88   -40596.765    2667.7697   -43264.535    69.693303 
   24600    214.68122    -78.00567    132262.55   -40607.701    2616.0091    -43223.71       69.896 
   24650    222.37354   -124.15999    132190.87   -40510.929    2709.7442   -43220.673    70.214289 
   24700    218.30977    -196.7686    132089.76   -40559.071     2660.225   -43219.296    70.423101 
   24750    213.41874   -22.759322    131907.23   -40567.433     2600.625   -43168.058    70.600931 
   24800    215.65603   -1.0790145    131856.83   -40553.704    2627.8876   -43181.592    70.686219 
   24850    213.61607    26.608093    131828.82   -40634.199    2603.0296   -43237.229    70.864066 
   24900     213.9837    87.679993    131827.53   -40662.583    2607.5094   -43270.093    70.940647 
   24950    213.82752    4.9923729    131959.32   -40646.146    2605.6063   -43251.753    71.051323 
   25000     213.8352    44.362001    132027.66   -40672.435    2605.6999   -43278.135    71.267129 
   25050       214.74   -1.2484409    132104.53   -40640.535    2616.7253    -43257.26    71.179412 
   25100    215.38415   -70.688382    132050.72   -40597.617    2624.5747   -43222.191    71.543015 
   25150    214.68011    -56.56355    131976.07   -40620.787    2615.9955   -43236.783    71.740544 
   25200    214.90223   -209.26526    131947.38   -40669.013    2618.7022   -43287.715      71.8219 
   25250    211.66812   -17.380753    131887.35   -40704.015    2579.2928   -43283.307     71.88321 
   25300    207.93796   -65.381748    131881.56   -40694.067    2533.8387   -43227.906    71.922559 
   25350     212.4076    112.09923    132048.54   -40693.019    2588.3038   -43281.322    71.956226 
   25400    214.52308   -17.818277    132067.49   -40700.091    2614.0821   -43314.173    72.086402 
   25450    216.19123    27.614468    132073.67   -40668.848    2634.4093   -43303.257    72.201761 
   25500    219.40317    10.930307    132061.81   -40613.826    2673.5486   -43287.374    72.478308 
   25550     214.7939    20.118609    132090.61    -40638.27    2617.3821   -43255.652    72.724904 
   25600    216.19852   -13.687001    132181.74   -40611.362    2634.4982    -43245.86     72.82226 
   25650    214.48757    68.277039    132117.76   -40619.468    2613.6494   -43233.117    72.842768 
   25700    214.53689    89.968856    132054.58    -40578.34    2614.2504    -43192.59    73.020492 
   25750    211.63049   -20.701221    132111.72   -40651.026    2578.8342   -43229.861    73.140921 
   25800    215.67451   -98.661803     132162.8   -40640.944    2628.1129   -43269.057    73.301606 
   25850     216.1414   -142.95219    132085.09   -40659.685    2633.8021   -43293.487    73.595791 
   25900    209.98249   -163.81321    132004.51   -40657.635    2558.7524   -43216.388    73.852305 
   25950    211.65361    174.81853    131825.88   -40665.925     2579.116   -43245.041     73.83676 
   26000     216.8799   -17.374549    131888.03   -40608.725    2642.8012   -43251.526    73.898966 
   26050    213.93766    17.602683    131876.62   -40663.793    2606.9484   -43270.742    73.921372 
   26100    215.41437    8.5082145    131940.25   -40614.648    2624.9428   -43239.591    74.085383 
   26150    214.29899    33.486215    131907.95   -40599.672    2611.3514   -43211.023    74.210411 
   26200    213.73822    31.542073    131954.47   -40603.449    2604.5181   -43207.967    74.465748 
   26250    214.55479    157.16532    132069.14   -40623.254    2614.4684   -43237.722    74.674035 
   26300    214.58033   -32.590121    132019.93   -40634.155    2614.7796   -43248.934    74.822364 
   26350    218.17608    -154.0957    131868.49   -40598.482    2658.5958   -43257.078    74.958693 
   26400    217.83104    127.04098    131877.28    -40589.87    2654.3913   -43244.261    75.194493 
   26450    214.94344    15.859647    131952.67   -40633.159    2619.2044   -43252.364    75.625169 
   26500    214.05428    51.070421     132010.7   -40664.394    2608.3694   -43272.763    75.880751 
   26550    212.23022    134.64883    132051.37   -40642.507    2586.1422    -43228.65    75.801701 
   26600    214.93291   -122.97146    132090.64   -40668.005     2619.076   -43287.081    76.091128 
   26650    210.19714   -207.35207    132012.06    -40643.53    2561.3681   -43204.898    76.275645 
   26700    214.27554    35.417555    131869.18   -40626.163    2611.0656   -43237.228    76.447733 
   26750    215.43982   -7.5350719    131928.73   -40611.685     2625.253   -43236.938    76.745278 
   26800    218.48866   -12.975501    131871.57   -40592.356    2662.4049   -43254.761    77.128703 
   26850     216.0206   -52.624484    131966.72   -40659.477    2632.3302   -43291.807    77.251838 
   26900    212.69636    119.87718    131805.83    -40627.27    2591.8225   -43219.093    77.433557 
   26950     213.8564    93.617361    131921.95   -40669.834    2605.9582   -43275.792    77.446033 
   27000    211.47808    13.209822    131915.44   -40642.112    2576.9771   -43219.089    77.565674 
   27050    211.71051   -33.037384    131705.65   -40640.363    2579.8094   -43220.172    77.772951 
   27100    216.27179   -22.540686    131557.58   -40610.437     2635.391   -43245.828    77.816647 
   27150    215.32692    58.899501    131525.32   -40628.174    2623.8772   -43252.051    77.883734 
   27200    214.21769    74.923768    131552.53     -40622.8    2610.3607   -43233.161    78.199422 
   27250    211.70416    123.44684    131601.93   -40584.124    2579.7319   -43163.856    78.444437 
   27300    221.02661    71.138995    131694.34   -40587.494    2693.3311   -43280.825    78.624273 
   27350    213.74091    131.78975    131811.27   -40546.954    2604.5508   -43151.505    78.763262 
   27400    214.99191    109.07125    131833.95    -40529.72     2619.795   -43149.515    79.056572 
   27450    215.81353   -54.298562    131744.63   -40522.293    2629.8069     -43152.1    79.368684 
   27500    215.62264    154.65148    131805.97   -40573.999    2627.4808    -43201.48     79.47018 
   27550    215.33347   -37.614105    131789.67   -40574.515    2623.9571   -43198.472    79.444159 
   27600     211.7174   -71.206368    131864.83   -40625.374    2579.8933   -43205.267    79.447839 
   27650    213.78176    71.435854    131898.33   -40623.679    2605.0486   -43228.728    79.736294 
   27700    214.30212    106.12826    131862.63   -40650.691    2611.3895   -43262.081    79.758469 
   27750    213.17768    120.66515    132032.11   -40657.337    2597.6876   -43255.025    79.927442 
   27800    216.25572    1.1771121    132122.51   -40618.562    2635.1952   -43253.757    80.031948 
   27850     216.6126   -173.02903    132120.27   -40602.224     2639.544   -43241.768    80.000674 
   27900    217.04579   -56.919702    132003.03   -40539.619    2644.8226   -43184.442    79.895425 
   27950    217.64963   -61.433732    132087.14   -40537.921    2652.1808   -43190.102    80.097763 
   28000    218.62705   -117.94322    132046.53   -40562.278    2664.0912   -43226.369    80.379902 
   28050    220.49133     3.066458    131919.26   -40527.451    2686.8085    -43214.26    80.442223 
   28100    219.31526    76.324017     131985.1   -40519.536    2672.4775   -43192.014    80.700285 
   28150    218.92294   -35.632346    131924.79   -40569.547    2667.6967   -43237.244     81.18518 
   28200    217.59666   -196.74594    131818.23    -40583.07    2651.5353   -43234.606    81.261862 
   28250    217.12918   -166.09446    131621.49   -40633.127    2645.8388   -43278.965    81.404909 
   28300    211.28957   -20.872036    131469.54    -40685.48      2574.68    -43260.16    81.566659 
   28350    212.55458   -118.86114    131490.66   -40688.771    2590.0948   -43278.866    81.780752 
   28400    212.88612   -43.993028    131442.43   -40686.939    2594.1348   -43281.073    81.815332 
   28450    214.32359   -20.793113    131503.96   -40629.254    2611.6511   -43240.905     82.02523 
   28500    213.77647   -10.646122    131480.88   -40623.748    2604.9841   -43228.732    82.092169 
   28550    214.38688   -89.528118     131491.9   -40601.098    2612.4224   -43213.521     82.07966 
   28600    212.89772    17.821021    131474.08   -40622.516    2594.2761   -43216.792    82.127336 
   28650    214.71006    41.970353     131536.5   -40623.579    2616.3605    -43239.94    82.255672 
   28700    215.18154     105.9925    131560.64   -40617.988    2622.1057   -43240.093    82.603006 
   28750    212.35907    70.387447    131443.45   -40652.414    2587.7124   -43240.127    82.448223 
   28800     213.8283    68.455108    131409.35   -40673.191    2605.6157   -43278.807    82.459997 
   28850    213.58027    23.290691    131566.25   -40655.882    2602.5933   -43258.475    82.705825 
   28900     212.6977    106.09916    131723.27   -40615.144    2591.8388   -43206.983    83.013769 
   28950    214.41855     111.1046     131765.9   -40673.872    2612.8082    -43286.68    83.347828 
   29000    216.51213   -80.917282    131807.15   -40624.877    2638.3197   -43263.197    83.433329 
   29050     211.2393   -76.483112    131847.12   -40637.466    2574.0673   -43211.533    83.666813 
   29100    213.60622   -13.006593    131767.37   -40646.592    2602.9096   -43249.501     83.78937 
   29150    215.55223    33.862989    131678.23   -40642.257    2626.6229    -43268.88    84.144666 
   29200    214.36719   -26.084915    131611.99   -40574.277    2612.1824   -43186.459    84.199683 
   29250    216.94761    93.218812       131489   -40577.526    2643.6263   -43221.153     84.42872 
   29300    219.73806    36.425101    131575.28     -40541.1    2677.6295   -43218.729    84.646285 
   29350    216.82345   -16.433295    131599.45   -40546.614    2642.1133   -43188.727    84.971262 
   29400    218.56263   -176.79802    131637.32   -40590.497    2663.3062   -43253.803    85.055164 
   29450    210.98822    107.98066    131465.57   -40610.016    2571.0079   -43181.024    85.127434 
   29500    218.95406    114.39456    131454.89   -40602.999     2668.076   -43271.075    85.167895 
   29550    214.47901   -66.791518    131585.29   -40674.075     2613.545   -43287.619    85.178869 
   29600    211.98178   -149.52141    131616.95   -40674.541    2583.1149   -43257.656    85.341179 
   29650    212.75875   -32.426628    131644.29   -40645.068    2592.5827   -43237.651     85.64826 
   29700    218.16496    25.147936    131682.17   -40625.503    2658.4604   -43283.963    85.934424 
   29750    217.63824   -3.6864828    131783.17   -40601.312     2652.042   -43253.354    86.032496 
   29800    213.63626    7.8804194     131648.9   -40604.882    2603.2757   -43208.157    86.050695 
   29850    218.86295     224.3619    131798.81   -40572.295    2666.9658   -43239.261    86.317447 
   29900    217.86681   -13.231351    131663.01   -40556.838    2654.8272   -43211.665    86.357864 
   29950    218.07117    107.31782    131686.45   -40562.097    2657.3174   -43219.415     86.53185 
   30000    216.17775    148.62277    131801.52   -40582.582    2634.2451   -43216.827    86.658141 
   30050    214.45075   -43.495224    131824.41    -40639.35    2613.2006   -43252.551    86.863874 
   30100    217.15869   -5.0693283    131895.84   -40572.678    2646.1983   -43218.877    86.854022 
   30150    216.81758   -145.28179    131890.35   -40598.878    2642.0418   -43240.919    87.250431 
   30200    219.16351    95.762177    131807.65   -40624.533    2670.6282   -43295.161     87.55298 
   30250     214.6283   -142.34938    131793.22   -40642.477    2615.3642   -43257.841    87.703553 
   30300    217.26757   -6.3067341    131795.17   -40587.145    2647.5251    -43234.67    87.770044 
   30350    214.54425   -63.606262    131924.11   -40597.752    2614.3399   -43212.092    88.082914 
   30400    218.68859    133.79928    131947.32     -40588.3    2664.8411   -43253.141    88.170556 
   30450    216.96862   -47.287043    132008.05    -40627.41    2643.8823   -43271.292    88.303769 
   30500    214.05833    -63.46175    132030.58   -40655.816    2608.4188   -43264.234    88.316751 
   30550    217.57408   -81.768449    132027.49   -40582.117    2651.2602   -43233.377    88.396263 
   30600    217.42368   -23.930428    132035.87   -40623.937    2649.4275   -43273.365    88.709255 
   30650    211.10178   -131.87194    131930.27   -40653.851    2572.3916   -43226.243    88.893468 
   30700    209.38796    8.0678755    131958.26   -40645.247    2551.5077   -43196.755    89.032129 
   30750    214.77022     -17.0618    131995.04   -40612.366    2617.0935    -43229.46    89.172655 
   30800    217.94057    10.120464    132059.75   -40602.427    2655.7261   -43258.153     89.27923 
   30850    215.01215    18.426321    132038.58   -40617.871    2620.0416   -43237.913    89.181811 
   30900    217.82128   -57.559996    132078.99    -40640.42    2654.2725   -43294.692    89.472987 
   30950    214.02371    33.531882    132070.97   -40640.681    2607.9969   -43248.678    89.644768 
   31000    214.98215   -129.50187    131977.98   -40681.847     2619.676   -43301.523    89.956314 
   31050    214.42168   -110.67903    131971.61   -40702.602    2612.8465   -43315.449    90.376088 
   31100    215.91467     23.98588    132022.33   -40695.311    2631.0393   -43326.351    90.292269 
   31150     214.0496    73.157384    132043.19    -40733.13    2608.3124   -43341.443    90.549488 
   31200    211.02028    44.043174    132067.89   -40760.145    2571.3985   -43331.544    90.523242 
   31250    210.85857     16.99759    132025.55   -40760.022    2569.4279    -43329.45    90.483138 
   31300    215.37431    54.641845    132092.36   -40700.324    2624.4547   -43324.779    90.578728 
   31350    216.23339   -32.230725    132101.87    -40658.27    2634.9232   -43293.193    90.624954 
   31400    216.03485    112.34538    132026.49   -40640.838    2632.5038   -43273.342    90.543747 
   31450    217.43798    18.797056    132038.09   -40670.461    2649.6017   -43320.062    90.627078 
   31500    215.81409    15.622537    131976.52   -40692.472    2629.8137   -43322.286    90.878263 
   31550    212.83986   -185.69159    131835.58   -40710.937    2593.5711   -43304.508    91.095178 
   31600    212.50764    30.132507    131884.48   -40687.077    2589.5228     -43276.6    91.173434 
   31650    214.03331    28.036528    131801.13   -40699.884     2608.114   -43307.998    91.480777 
   31700    213.93646    40.577249    131711.52   -40723.444    2606.9337   -43330.378    91.388817 
   31750     209.0985   -46.221478    131740.29   -40712.167    2547.9805   -43260.147    91.788789 
   31800    214.36402   -25.909275    131612.22   -40758.972    2612.1438   -43371.116    91.723127 
   31850    209.21605   -41.046863    131530.69   -40726.732     2549.413   -43276.145    91.734852 
   31900    213.48535    204.56124    131636.27   -40681.969    2601.4367   -43283.406    91.843056 
   31950    216.99871   -111.95043    131936.77   -40676.855    2644.2489   -43321.104    92.109983 
   32000    219.63354    98.722378    131986.89   -40644.805    2676.3558   -43321.161    92.098131 
   32050    215.54902   -55.050396    132010.07   -40698.709    2626.5837   -43325.293    92.580085 
   32100    214.16536    13.394185    131863.18   -40689.449     2609.723   -43299.172    92.741643 
   32150    213.41048    195.79517    131886.76   -40687.873    2600.5244   -43288.397    92.865704 
   32200    215.75738     14.28007    131945.69   -40691.553    2629.1227   -43320.676    92.938539 
   32250    215.92564   -79.390491    131956.54   -40692.374     2631.173   -43323.547    93.098658 
   32300    214.78431   -37.496108    131842.02   -40709.558    2617.2653   -43326.823    93.074854 
   32350    212.58142   -10.908552    131808.38   -40728.802    2590.4219   -43319.223    93.276468 
   32400    214.02498    -81.60112    131847.96   -40697.317    2608.0124   -43305.329     93.37279 
   32450    212.88245     65.14027    131879.76   -40672.856      2594.09   -43266.946    93.484417 
   32500    215.30027   -42.078474    131856.67   -40686.143    2623.5525   -43309.696    93.666179 
   32550    216.16333    80.936034    131947.53   -40666.203    2634.0694   -43300.273    93.802149 
   32600    216.38733   -128.28389    131872.31     -40627.6    2636.7989   -43264.399    94.046767 
   32650    220.32522    127.70477    131896.95   -40619.267    2684.7843   -43304.051    94.366098 
   32700    213.89528    142.99524    131929.42   -40644.963     2606.432   -43251.395    94.604493 
   32750    212.61886   -102.85323    131977.44   -40653.962    2590.8781    -43244.84    94.882813 
   32800    211.34026   -62.269664    131840.63   -40702.075    2575.2976   -43277.373    95.108402 
   32850     214.8908    -108.6197    131719.23   -40706.446    2618.5629   -43325.009    95.107529 
   32900    214.05995   -21.218466    131611.12   -40658.901    2608.4385   -43267.339    95.089481 
   32950    219.07617   -72.678963    131730.81   -40659.385    2669.5639   -43328.949    94.988689 
   33000    214.50642    9.0302415     131704.4   -40695.939    2613.8791   -43309.818    94.923313 
   33050    218.73995   -170.61348    131651.54   -40697.504     2665.467   -43362.971    95.287608 
   33100     219.5379   -60.044921    131681.53   -40663.808    2675.1903   -43338.998    95.716478 
   33150    217.95078    188.79201    131814.81    -40648.08    2655.8504    -43303.93    95.832764 
   33200     218.5586   -64.620687    131849.27   -40681.807    2663.2571   -43345.064    95.801811 
   33250    216.74117   -41.842762     131776.9   -40700.662    2641.1107   -43341.772    95.993443 
   33300    217.94835    14.380606    131888.83   -40669.258    2655.8208   -43325.078     96.14647 
   33350    215.20518   -162.22017    131745.99   -40629.995    2622.3937   -43252.388    96.248073 
   33400    218.06664   -135.56686    131564.19   -40614.739    2657.2623   -43272.001    96.259711 
   33450    213.94183     17.08923    131479.49   -40644.329    2606.9992   -43251.328    96.296399 
   33500    217.11409    180.66675    131680.13   -40617.722    2645.6549   -43263.377    96.192354 
   33550    218.55718    70.698118    131926.72   -40638.748    2663.2397   -43301.988    96.610126 
   33600    215.23274    20.625757    131943.73    -40626.99    2622.7296   -43249.719    96.781105 
   33650     213.1194    151.07787    132014.33   -40645.129    2596.9774   -43242.107    96.971802 
   33700    217.28604   -68.472803    131956.63     -40610.9    2647.7503    -43258.65     97.33808 
   33750    214.33854    83.883102    131881.58   -40633.076    2611.8334    -43244.91    97.733919 
   33800    214.83947    121.74662    131962.13   -40623.428    2617.9375   -43241.366    97.797074 
   33850    212.97226   -52.076131    131888.92   -40635.802    2595.1844   -43230.986    98.235908 
   33900    211.24102    28.180525    131763.43   -40633.194    2574.0884   -43207.282    98.443491 
   33950    212.00841    29.427808    131680.63   -40672.081    2583.4394    -43255.52    98.354197 
   34000    219.32226   -30.613162    131500.45   -40644.984    2672.5627   -43317.547    98.312657 
   34050    215.01199    76.579515    131534.17   -40709.797    2620.0396   -43329.836    98.451447 
   34100    212.21139   -30.151565    131620.58   -40718.588    2585.9128     -43304.5    98.575198 
   34150     221.0324    47.363645    131767.88   -40711.498    2693.4016     -43404.9    98.698001 
   34200    215.57558   -29.493853     131841.5   -40734.973    2626.9073   -43361.881    98.871552 
   34250    215.20407    -60.84001    131893.99   -40754.226    2622.3802   -43376.606    99.187421 
   34300    211.07111    26.085935    131920.59    -40745.58    2572.0178   -43317.598    99.485063 
   34350     213.5669   -71.376475    131865.05   -40738.323    2602.4304   -43340.754    99.925951 
   34400    213.82833   -32.989289    131749.66   -40712.837    2605.6161   -43318.454    100.11475 
   34450    211.69137    10.685367    131687.53   -40716.825    2579.5761   -43296.401    100.37199 
   34500     216.7956    24.205005    131622.82   -40707.025     2641.774   -43348.799    100.36524 
   34550    214.05448    232.70818     131611.3   -40700.461    2608.3719   -43308.833    100.35244 
   34600    213.94909    2.3882625    131753.71   -40732.786    2607.0877   -43339.874    100.66029 
   34650    212.03588    32.230366    131789.98   -40775.954    2583.7741   -43359.728    100.78739 
   34700     213.4904   -13.631876     131706.5   -40766.947    2601.4983   -43368.446    100.80706 
   34750    213.34054   -128.64848    131548.65   -40701.039    2599.6722   -43300.711    101.06747 
   34800    220.32339    79.168168    131590.24   -40687.927    2684.7621   -43372.689    101.23492 
   34850    217.39561   -99.856765    131642.17   -40748.332    2649.0854   -43397.418     101.4511 
   34900    212.36445    29.496823    131583.25   -40771.058     2587.778   -43358.836     101.3528 
   34950    215.85001    31.705338    131620.22   -40749.791    2630.2514   -43380.043    101.41438 
   35000    214.32712    155.94743    131756.76    -40782.65    2611.6941   -43394.344    101.47782 
   35050    210.23691    52.576533    131785.67   -40800.562    2561.8527   -43362.415    101.54662 
   35100    211.82653   -148.89825    131774.82   -40736.954    2581.2231   -43318.177    101.75517 
   35150    212.67519    38.630109    131707.61   -40700.201    2591.5645   -43291.765    101.83218 
   35200    220.91051    44.223749    131739.98   -40630.317    2691.9164   -43322.233    101.94813 
   35250    215.66161    97.007922    131769.75   -40635.709    2627.9557   -43263.664    102.00201 
   35300    219.91412    93.676039    131927.62   -40644.825    2679.7748     -43324.6    102.12169 
   35350    217.27633     70.38444    131955.81   -40653.116    2647.6319   -43300.748    102.25725 
   35400    218.19814   -115.74346    131925.88   -40682.002    2658.8647   -43340.866    102.48716 
   35450     217.3368   -188.60956    131789.12   -40677.548    2648.3687   -43325.917    102.53263 
   35500     214.4685   -13.075931    131668.04   -40707.412    2613.4169   -43320.829    102.60934 
   35550    213.20362    36.355172    131741.45   -40722.067    2598.0037   -43320.071     102.6168 
   35600    212.51493   -47.602719    131619.72   -40716.926    2589.6117   -43306.538    102.83186 
   35650    211.83668    110.83761    131702.08   -40664.675    2581.3468   -43246.021    103.10701 
   35700    212.51323   -181.96673    131771.99   -40693.753    2589.5909   -43283.344    103.20983 
   35750    212.72303   -157.52854    131565.63    -40685.91    2592.1474   -43278.057    103.32039 
   35800    209.99085    223.56608    131617.86   -40715.842    2558.8543   -43274.697    103.38969 
   35850    214.30664    75.783249    131696.08   -40679.234    2611.4446   -43290.678    103.82316 
   35900    211.45204    37.754649    131662.91   -40671.873    2576.6597   -43248.533    104.07417 
   35950    215.93288    149.25284    131641.69   -40666.379    2631.2612    -43297.64    104.28607 
   36000    216.39478    227.48446    131644.98   -40661.244    2636.8898   -43298.134    104.55624 
   36050    213.85676    31.255287    131864.37   -40691.637    2605.9625   -43297.599    104.77922 
   36100    213.08789    12.089051     131905.7   -40683.585    2596.5934   -43280.179    105.14354 
   36150    209.48095    72.178085    131950.49   -40741.422    2552.6409   -43294.062    105.22204 
   36200    212.61832   -57.440014     131877.4   -40731.035    2590.8715   -43321.907    105.10106 
   36250    211.57905    80.721783    131967.86   -40714.724    2578.2074   -43292.932    105.34945 
   36300    212.01568   -50.227966    131800.98    -40719.23     2583.528   -43302.758    105.36298 
   36350    212.27565   -105.21104    131801.67   -40706.151    2586.6959   -43292.847    105.60264 
   36400    212.99837     101.0075    131772.22   -40740.097    2595.5026     -43335.6    105.61286 
   36450    212.38343    29.087177    131786.04   -40753.733    2588.0092   -43341.743    105.59403 
   36500    213.52626   -74.153924    131980.32   -40756.869    2601.9352   -43358.804    105.93989 
   36550    213.25786    5.5410045    131977.37   -40703.722    2598.6646   -43302.386    106.15533 
   36600    212.81434    10.100533    132086.49    -40670.95    2593.2601    -43264.21    106.27843 
   36650      217.099   -48.115917    132018.21   -40669.672    2645.4711   -43315.143    106.56891 
   36700    214.13432    -247.9418     131793.4   -40702.589    2609.3448   -43311.934    106.62084 
   36750     214.7648    98.077742    131712.01   -40731.847    2617.0276   -43348.875    106.65342 
   36800    215.62589   -12.516361    131868.01     -40732.6    2627.5204    -43360.12    106.86951 
   36850    211.93233    62.560387       131937   -40705.904    2582.5124   -43288.417    106.85836 
   36900    217.00947    154.02642    132036.26   -40676.484      2644.38   -43320.864    106.90375 
   36950    217.06272    147.32207    132122.84   -40738.047     2645.029   -43383.076    106.95675 
   37000    215.10251   -74.719229    132222.01   -40747.306    2621.1427   -43368.449     107.1986 
   37050    213.69648   -35.382075    132077.96    -40775.16    2604.0095    -43379.17    107.21054 
   37100    207.98089    -55.55111    131966.52   -40795.073    2534.3619   -43329.435    107.28207 
   37150    214.31532    60.178698    131870.72   -40767.713    2611.5503   -43379.263    107.32624 
   37200    214.63424   -12.729383    131839.78   -40766.623    2615.4366   -43382.059    107.24926 
   37250    215.06062    88.525784    131823.39   -40721.674    2620.6323   -43342.306    107.68504 
   37300    213.35048    156.13562     132030.4   -40742.646    2599.7932   -43342.439    107.77983 
[...]
  191000    218.94258    45.382449    132162.19   -40701.579    2667.9361   -43369.515    522.81094 
  191050    216.52123    48.896778    132363.85   -40700.805    2638.4306   -43339.236    523.17947 
  191100    214.80577     37.15705    132356.09   -40702.594    2617.5268   -43320.121    523.26391 
  191150    215.75832    38.156725    132504.43   -40696.211    2629.1341   -43325.345    524.41139 
  191200    215.97025   -82.980472    132432.47   -40650.338    2631.7166   -43282.054    524.40332 
  191250    215.93028   -110.84268    132342.73     -40701.2    2631.2296   -43332.429    524.20927 
  191300    215.02464   -41.043262    132266.98   -40709.465    2620.1938   -43329.659    524.40159 
  191350    215.55057    40.112334    132334.18   -40713.635    2626.6025   -43340.237    524.48742 
  191400    216.72065   -109.77427    132263.02   -40706.913    2640.8606   -43347.774     524.5493 
  191450    214.45675    3.7391763    132274.52   -40703.167    2613.2737   -43316.441    524.70184 
  191500    212.81674   -92.125903    132288.01   -40747.893    2593.2893   -43341.183    524.59989 
  191550    212.94538    78.110758    132215.07   -40704.251    2594.8569   -43299.108    524.65227 
  191600    215.20739    88.872146     132420.3   -40734.726    2622.4207   -43357.147    525.42011 
  191650    215.87084   -43.503728    132286.64   -40697.826    2630.5053   -43328.331    524.86741 
  191700    219.49829   -69.556119    132210.28    -40640.42    2674.7077   -43315.128    525.15109 
  191750    219.19989   -26.428082    132089.45   -40631.842    2671.0716   -43302.913    524.53012 
  191800    216.49292    30.527229    132196.58   -40650.097    2638.0856   -43288.182    525.25709 
  191850    214.46563   -63.521282    132172.93   -40642.669    2613.3819   -43256.051    525.62674 
  191900    219.81875   -30.553532    132008.52   -40662.152    2678.6127   -43340.765    525.31559 
  191950    217.30693   -80.206489    131844.28   -40651.429    2648.0047   -43299.433    524.82987 
  192000    215.62218   -142.13854     131788.6   -40671.932    2627.4752   -43299.407    525.43924 
  192050    218.08278    96.219787    131798.06   -40654.074    2657.4589   -43311.533    525.61856 
  192100    214.05309   -202.96616    131808.41   -40671.545     2608.355     -43279.9    525.02607 
  192150    212.86065   -98.120064    131626.95   -40711.205    2593.8244   -43305.029    525.55509 
  192200    215.71281   -9.3750923     131560.1   -40689.055    2628.5796   -43317.635    526.05629 
  192250    215.08987    17.378994    131535.96   -40669.327    2620.9887   -43290.315    525.59282 
  192300    218.78069    52.297147    131557.73   -40679.531    2665.9634   -43345.494    526.28241 
  192350    211.49266    67.955172     131495.2   -40676.681    2577.1546   -43253.836    526.26051 
  192400    212.62483     147.5696     131576.2   -40647.915    2590.9508   -43238.866    526.91115 
  192450    217.55273   -38.745183     131656.8   -40603.584         2651   -43254.584      526.815 
  192500    219.04236   -84.597144    131679.36   -40595.422    2669.1519   -43264.574    527.25433 
  192550    213.95503   -57.030786     131589.4   -40625.171      2607.16   -43232.331    527.06557 
  192600    217.82273    109.79222    131549.04   -40596.607    2654.2901   -43250.897    526.82893 
  192650    216.93666    128.01404    131589.35     -40579.9    2643.4928   -43223.393    526.60088 
  192700    217.04785    18.223533    131703.08   -40629.284    2644.8478   -43274.132    526.77317 
  192750    212.78046   -38.914162    131669.03     -40688.8    2592.8473   -43281.647      527.048 
  192800    216.10374    83.811807    131680.91   -40634.719    2633.3432   -43268.062    527.60864 
  192850    213.92366    132.43409     131795.3   -40644.642    2606.7778    -43251.42    527.88658 
  192900     215.1581    67.025595     131804.3   -40607.269    2621.8201   -43229.089    527.48207 
  192950    217.91278    66.058866    131787.98   -40651.928    2655.3874   -43307.315     527.6379 
  193000    217.63043    17.034764    131869.33   -40656.289    2651.9468   -43308.235     528.0808 
  193050    210.99133   -72.424994    131863.44   -40661.312    2571.0457   -43232.358    528.71441 
  193100    213.06882   -5.6811828    131818.51    -40644.09    2596.3611   -43240.451    529.07978 
  193150    218.77885    116.00614    131925.94   -40642.852    2665.9409   -43308.793    529.65446 
  193200     217.9811   -199.95218    131839.85   -40609.028      2656.22   -43265.248    529.27962 
  193250    219.95128   -14.470383    131767.34   -40571.462    2680.2276    -43251.69    529.75388 
  193300    219.27631    42.330276    131731.87   -40532.776    2672.0027   -43204.778    529.99179 
  193350    218.54405   -174.35102    131674.52   -40594.809    2663.0797   -43257.888    529.56594 
  193400    216.53521    141.99737    131786.88   -40652.647     2638.601   -43291.248    529.84456 
  193450    212.28874    130.52197    131901.57   -40654.371    2586.8554   -43241.226    530.47295 
  193500    219.42728    170.29281    131987.59   -40619.086    2673.8425   -43292.928    531.11111 
  193550    217.28925   -13.739433     131958.7   -40639.462    2647.7894   -43287.251    531.29981 
  193600    217.65018    -32.83315    131926.68   -40616.423    2652.1875   -43268.611    531.47866 
  193650    212.15972    150.49413    131931.61   -40671.521    2585.2832   -43256.804    531.43533 
  193700    212.39556    76.083588    131933.02   -40589.911    2588.1571   -43178.068    531.65066 
  193750    213.89078   -42.386591    131899.36   -40677.327    2606.3772   -43283.704    531.74327 
  193800    215.71398    -70.91462    131742.21   -40654.389    2628.5938   -43282.983     531.0086 
  193850    209.98128   -219.72739    131499.81   -40707.368    2558.7377   -43266.106    530.58455 
  193900    213.05132   -120.54809    131420.14   -40722.304    2596.1478   -43318.452    530.78651 
  193950     213.4445    83.575067    131408.87   -40707.488    2600.9389   -43308.427    530.80379 
  194000     216.6241    37.415506    131361.23   -40642.032    2639.6842   -43281.716    530.93922 
  194050    212.54455    62.356872    131414.72   -40557.483    2589.9726   -43147.455    531.23041 
  194100     214.8138    74.849964    131506.01   -40571.537    2617.6246   -43189.161    531.56026 
  194150    215.46035    185.25702    131546.14   -40537.699    2625.5032   -43163.202    531.19261 
  194200    214.76011     97.05115    131611.31   -40608.278    2616.9704   -43225.248    531.46853 
  194250    220.10999   -125.11774    131683.94   -40635.277    2682.1616   -43317.438    532.37344 
  194300    214.16671   -35.018813    131719.07   -40669.927    2609.7394   -43279.666    532.55084 
  194350    210.49109   -88.237843    131815.58   -40686.534      2564.95   -43251.484    532.86543 
  194400    213.59616   -193.06951    131785.76   -40655.689     2602.787   -43258.476    533.22312 
  194450    214.38467   -37.863437    131778.73   -40652.833    2612.3955   -43265.229    533.64917 
  194500    215.49369   -64.245556    131701.03   -40590.327    2625.9095   -43216.236    533.47027 
  194550    215.04893    82.354775    131561.59   -40609.802    2620.4898   -43230.292     533.2795 
  194600    218.10699    87.164636     131752.7   -40628.379    2657.7539   -43286.133    534.08089 
  194650    214.06605     3.563557    131902.74   -40629.577    2608.5129    -43238.09    534.95828 
  194700    215.15302   -45.361123    131769.67   -40619.825    2621.7582   -43241.583    534.84242 
  194750     216.2348   -70.200343    131773.84   -40614.385    2634.9403   -43249.326    534.61498 
  194800    218.83758   -25.550757    131737.44   -40603.001    2666.6566   -43269.658    534.25603 
  194850    217.78108   -51.210169    131612.07    -40636.33    2653.7826   -43290.112    534.41368 
  194900    215.01985   -106.94092    131660.86   -40638.189    2620.1354   -43258.325    534.62395 
  194950    213.20848   -14.284553    131597.82   -40671.153    2598.0629   -43269.216    534.32708 
  195000    215.27244     125.1043    131864.31   -40640.342    2623.2134   -43263.556    535.04163 
  195050    214.38589    78.425631     132004.3   -40654.894    2612.4103   -43267.304    534.96817 
  195100    217.33658    79.442261    132139.56   -40678.131     2648.366   -43326.497    535.65521 
  195150    213.45873   -222.97846    131991.79   -40684.241    2601.1124   -43285.354    535.36502 
  195200    213.90158   -83.190207    131910.16   -40711.162    2606.5087   -43317.671    535.85233 
  195250    215.95354    -44.49704    131861.95   -40671.869     2631.513   -43303.382    536.04469 
  195300    214.46186    179.82315    131884.36    -40645.99     2613.336   -43259.326     536.1629 
  195350    215.09523   -124.03582    131955.25   -40657.855     2621.054   -43278.909    536.33883 
  195400    215.26427    61.223144    132075.92   -40669.982    2623.1138   -43293.096    536.63342 
  195450    216.91342    55.192372    132084.15   -40660.135    2643.2096   -43303.345    536.86556 
  195500    213.68448    -1.711598    132055.07   -40645.964    2603.8633   -43249.827    537.53445 
  195550    215.66485   -20.205359    132044.99   -40641.116    2627.9951   -43269.111    537.21913 
  195600    210.23553   -233.03645    131844.14   -40698.555    2561.8359   -43260.391    536.34522 
  195650    215.11973   -27.357114     131827.7   -40681.589    2621.3525   -43302.942    536.75042 
  195700    211.83267    114.01914    131884.92   -40619.749     2581.298   -43201.047     536.7781 
  195750    218.01373    102.13345    131921.61   -40606.569    2656.6175   -43263.187    536.76778 
  195800    214.26907    99.012778     132143.5   -40598.568    2610.9868   -43209.555    537.40746 
  195850    214.98353   -104.87122    131937.98   -40643.527    2619.6929    -43263.22    537.14673 
  195900    216.85358   -26.358736    131886.35   -40636.628    2642.4805   -43279.109    537.54373 
  195950    215.46295    164.71511    132001.77   -40600.452    2625.5349   -43225.986    538.09781 
  196000    218.13209    21.789529    132044.88   -40532.537    2658.0598   -43190.596    538.42257 
  196050    218.27965    -91.70515    131962.27   -40508.503    2659.8579   -43168.361    538.41673 
  196100    220.41208    63.809955    131871.96    -40574.25    2685.8428   -43260.093    538.65613 
  196150    217.97433   -119.77716    132023.03       -40607    2656.1374   -43263.137    538.82154 
  196200    215.08141   -28.452933    131943.36   -40644.644    2620.8856    -43265.53    538.81586 
  196250    215.66631    51.938701    131961.05   -40645.386     2628.013   -43273.399    539.32829 
  196300     217.9677    -102.8938    131945.14   -40651.635    2656.0566   -43307.692    539.21927 
  196350    216.35129   -62.331467     131885.3   -40627.986    2636.3598   -43264.346    539.73662 
  196400    218.06216     74.62126    131858.41   -40594.071    2657.2076   -43251.278    539.51081 
  196450    218.88077    -7.614896    131957.22   -40577.093    2667.1829   -43244.276    539.72047 
  196500    210.85776    137.85646    131893.14   -40616.635     2569.418   -43186.053    539.85252 
  196550    214.69251   -105.12738    132008.51   -40614.547    2616.1466   -43230.693    540.45347 
  196600    217.12051   -38.991839    131890.37   -40590.348    2645.7332   -43236.081    540.08125 
  196650    212.44316    26.659067    131952.46   -40598.152    2588.7371    -43186.89    540.03643 
  196700    218.12964    62.202592    132035.21   -40620.584    2658.0299   -43278.614    540.53715 
  196750    221.74475    12.255646    132095.18   -40576.579     2702.082   -43278.661    540.32558 
  196800    211.06702   -13.427343    132033.45   -40611.922     2571.968    -43183.89    540.73233 
  196850    215.23469   -5.3671292    131989.63   -40607.162    2622.7534   -43229.916    540.69864 
  196900    212.26174   -38.820416     132184.7   -40635.368    2586.5264   -43221.895     541.2466 
  196950    215.27393   -175.64041    132151.12   -40684.785    2623.2315   -43308.016    541.12867 
  197000    207.29894    14.917176    131968.32   -40706.227    2526.0519   -43232.279    540.85825 
  197050    211.61986   -35.860701    131812.29   -40745.478    2578.7047   -43324.183     540.7918 
  197100    213.34413   -26.264231    131856.92   -40777.364    2599.7159    -43377.08    541.57498 
  197150    206.50182   -18.881734    131987.54   -40774.128    2516.3386   -43290.466    542.24173 
  197200    215.75468      143.977    131975.11   -40726.651    2629.0898   -43355.741    542.34175 
  197250    214.96615    29.016915    132032.91   -40729.546    2619.4811   -43349.028    542.97051 
  197300    215.52701    113.20255    132132.37   -40686.401    2626.3155   -43312.717    543.33252 
  197350    216.11948    110.24687    132218.07   -40698.034    2633.5351   -43331.569    543.19644 
  197400    214.01726    13.353218    132273.69   -40724.332    2607.9183    -43332.25    543.62827 
  197450    214.43892   -81.365799    132227.02   -40720.316    2613.0565   -43333.372    544.07093 
  197500    214.06749   -206.28901     131983.9   -40668.451    2608.5305   -43276.981    543.45203 
  197550    213.81954     82.35967    132013.24   -40636.528    2605.5091   -43242.037     544.0384 
  197600     211.4363   -85.772407    132067.12    -40695.35    2576.4679   -43271.818    544.69674 
  197650    214.66399   -23.723137    131953.51   -40674.112     2615.799   -43289.911    543.94528 
  197700    214.00923    16.778969    131941.45   -40705.088    2607.8205   -43312.909    544.60717 
  197750    215.60981    88.160714    132215.39   -40695.011    2627.3244   -43322.335     545.4999 
  197800    216.95055   -65.815768    132373.09   -40723.352    2643.6621   -43367.014    546.43417 
  197850    214.70833     177.7473    132444.05   -40708.499    2616.3394   -43324.838    546.33775 
  197900    209.48318   -57.206858    132359.75   -40719.544    2552.6681   -43272.212    546.24368 
  197950    218.32109   -117.87961    132474.31   -40705.551    2660.3629   -43365.914    546.75025 
  198000    214.57926   -111.99886    132328.58   -40723.345    2614.7666   -43338.111    546.12864 
  198050    217.40904   -18.058856    132379.07   -40696.707     2649.249   -43345.956     546.1427 
  198100    213.56058   -108.27785     132419.5   -40709.286    2602.3534   -43311.639    546.41665 
  198150    209.39673    7.0982646    132393.34   -40691.721    2551.6146   -43243.335    546.23016 
  198200    211.90544    91.160067    132444.74   -40687.848    2582.1846   -43270.032    546.53196 
  198250    210.76115   -18.954475    132351.88   -40727.368    2568.2409   -43295.609    546.16083 
  198300    213.70785    172.75867    132439.69   -40732.289     2604.148   -43336.437    545.98379 
  198350    213.45085    -33.18294    132431.16   -40769.745    2601.0163   -43370.761     546.0939 
  198400    211.77399    41.265585       132415   -40747.358    2580.5829   -43327.941    546.10576 
  198450    215.52165   -10.791835    132449.82   -40763.617    2626.2501   -43389.867     546.4483 
  198500    215.95106   -74.767313    132517.89   -40750.818    2631.4828   -43382.301    546.74932 
  198550    213.11458   -192.08404    132452.53   -40774.096    2596.9187   -43371.015    546.36869 
  198600      212.004   -17.156185    132399.49   -40763.793    2583.3856   -43347.179    546.73315 
  198650    211.60899   -40.286328    132435.73   -40757.115    2578.5722   -43335.687    547.06399 
  198700    210.66578    111.95551    132532.45    -40712.66    2567.0787   -43279.738     547.0896 
  198750    220.29161    120.43758    132539.31   -40691.413    2684.3748   -43375.788    547.45784 
  198800    215.63277   -84.403415    132704.16   -40689.281    2627.6042   -43316.886     547.9463 
  198850    212.11734     26.07177     132583.4   -40733.564    2584.7668    -43318.33    547.85893 
  198900    211.80616   -48.424724    132577.09   -40715.734    2580.9748   -43296.708     548.1318 
  198950    212.69895   -18.901782    132499.45   -40760.226     2591.854    -43352.08    548.28639 
  199000    209.61602    39.195624    132513.93   -40725.683    2554.2868    -43279.97    548.67866 
  199050    218.57119   -72.279563    132518.31   -40690.367    2663.4105   -43353.778    548.68411 
  199100    217.11549    152.19948    132601.74   -40656.597     2645.672   -43302.269    548.90025 
  199150    217.65789   -32.334829    132739.99   -40670.521    2652.2815   -43322.803    548.72459 
  199200    215.91969    101.46103    132760.41   -40690.953    2631.1005   -43322.053    548.75703 
  199250    214.39869   -116.59145    132575.69   -40679.648    2612.5663   -43292.214    548.20457 
  199300    215.22829    47.493136    132565.82   -40695.862    2622.6754   -43318.537    548.49854 
  199350    215.62754    78.297463    132691.14   -40716.324    2627.5405   -43343.864     549.6197 
  199400    219.76408    60.499106    132646.85   -40630.179    2677.9465   -43308.125    549.84823 
  199450    217.69659     91.27977     132770.9   -40662.727     2652.753    -43315.48    550.61331 
  199500    216.36582    94.747912    132677.58   -40622.847    2636.5369   -43259.384    550.16571 
  199550    218.55149    70.347322    132678.63    -40626.86    2663.1704    -43290.03    550.29119 
  199600    215.63178   -165.03708    132590.32    -40648.28    2627.5922   -43275.872    550.41293 
  199650    215.90508    36.968995    132472.43   -40631.071    2630.9225   -43261.993    550.48072 
  199700    216.27286    7.0864881    132622.65   -40624.406     2635.404    -43259.81    550.67789 
  199750    216.57388    66.344851    132581.14    -40640.24    2639.0721   -43279.312    550.38005 
  199800    217.47468   -80.437219    132467.25   -40586.244    2650.0489   -43236.293     549.8525 
  199850    218.40467   -14.114731    132488.38   -40599.277    2661.3813   -43260.658    549.91264 
  199900    216.88352    -45.02662    132570.26   -40664.777    2642.8453   -43307.623    550.57438 
  199950    216.80254   -17.469806    132635.39   -40679.794    2641.8585   -43321.653    550.55624 
  200000    214.37901   -76.622492    132647.36   -40685.526    2612.3265   -43297.852    550.81072 
Loop time of 333.223 on 12 procs for 200000 steps with 4089 atoms

Performance: 259.286 ns/day, 0.093 hours/ns, 600.198 timesteps/s
99.5% CPU use with 12 MPI tasks x no OpenMP threads

MPI task timing breakdown:
Section |  min time  |  avg time  |  max time  |%varavg| %total
---------------------------------------------------------------
Pair    | 236.34     | 275.68     | 297.16     | 162.2 | 82.73
Neigh   | 6.2109     | 7.1014     | 7.7075     |  21.7 |  2.13
Comm    | 21.887     | 43.793     | 83.661     | 414.3 | 13.14
Output  | 0.15063    | 0.17434    | 0.42357    |  18.0 |  0.05
Modify  | 4.9997     | 5.1147     | 5.1919     |   2.6 |  1.53
Other   |            | 1.364      |            |       |  0.41

Nlocal:    340.75 ave 371 max 296 min
Histogram: 4 0 0 0 0 0 0 0 7 1
Nghost:    954.667 ave 992 max 896 min
Histogram: 4 0 0 0 0 0 0 0 4 4
Neighs:    0 ave 0 max 0 min
Histogram: 12 0 0 0 0 0 0 0 0 0
FullNghs:  11070 ave 12232 max 9361 min
Histogram: 4 0 0 0 0 0 0 1 5 2

Total # of neighbors = 132840
Ave neighs/atom = 32.4872
Neighbor list builds = 11814
Dangerous builds = 0

write_data		${DIR}/data.eq-${NAME}-${TEMP}
write_data		run_3/data.eq-${NAME}-${TEMP}
write_data		run_3/data.eq-hardcavity_freeze_3-${TEMP}
write_data		run_3/data.eq-hardcavity_freeze_3-215
undump          1

reset_timestep  0

unfix           2
unfix           3
unfix           4


################################################
#######         Run Simulation         #########
################################################

log				${DIR}/log.run_${NAME}
log				run_3/log.run_${NAME}
log				run_3/log.run_hardcavity_freeze_3
