LAMMPS data file via write_data, version 29 Oct 2020, timestep = 10000

6871 atoms
2 atom types

0.0 68.908 xlo xhi
0.0 68.92587069519459 ylo yhi
0.0 27.952761301163882 zlo zhi

Masses

1 12.01
2 18.015

Atoms # atomic

1 1 0.0 2.8417180249513345 1.677 0 0 0
3 1 0.0 0.0 1.677 0 0 0
5 1 1.2305 0.7104295062378347 1.677 0 0 0
12 1 1.2305 2.1312885187135 1.677 0 0 0
14 1 2.461 2.8417180249513345 1.677 0 0 0
16 1 2.461 0.0 1.677 0 0 0
18 1 3.6915 0.7104295062378347 1.677 0 0 0
33 1 3.6914999999999996 2.1312885187135 1.677 0 0 0
35 1 4.922 2.841718024951334 1.677 0 0 0
37 1 4.922 0.0 1.677 0 0 0
39 1 6.1525 0.7104295062378343 1.677 0 0 0
62 1 6.1525 2.1312885187134993 1.677 0 0 0
64 1 7.382999999999999 2.8417180249513345 1.677 0 0 0
66 1 7.382999999999999 0.0 1.677 0 0 0
68 1 8.613499999999998 0.7104295062378343 1.677 0 0 0
96 1 8.613499999999998 2.1312885187135002 1.677 0 0 0
98 1 9.844 2.8417180249513336 1.677 0 0 0
100 1 9.844 0.0 1.677 0 0 0
102 1 11.0745 0.7104295062378334 1.677 0 0 0
130 1 11.0745 2.1312885187135002 1.677 0 0 0
132 1 12.305 2.8417180249513336 1.677 0 0 0
134 1 12.305 0.0 1.677 0 0 0
136 1 13.535499999999999 0.7104295062378352 1.677 0 0 0
164 1 13.535499999999999 2.1312885187134984 1.677 0 0 0
166 1 14.765999999999998 2.8417180249513354 1.677 0 0 0
168 1 14.765999999999998 0.0 1.677 0 0 0
170 1 15.9965 0.7104295062378352 1.677 0 0 0
198 1 15.9965 2.1312885187135002 1.677 0 0 0
200 1 17.226999999999997 2.8417180249513336 1.677 0 0 0
202 1 17.227 0.0 1.677 0 0 0
204 1 18.457499999999996 0.7104295062378334 1.677 0 0 0
232 1 18.4575 2.1312885187135002 1.677 0 0 0
234 1 19.688 2.841718024951337 1.677 0 0 0
236 1 19.688 0.0 1.677 0 0 0
238 1 20.918499999999998 0.7104295062378405 1.677 0 0 0
266 1 20.918499999999998 2.1312885187135002 1.677 0 0 0
268 1 22.149 2.8417180249513407 1.677 0 0 0
270 1 22.148999999999997 0.0 1.677 0 0 0
8 1 0.0 4.262577037427 1.677 0 0 0
10 1 1.2305000000000001 4.973006543664834 1.677 0 0 0
25 1 1.2305 6.393865556140499 1.677 0 0 0
29 1 2.461 4.262577037427 1.677 0 0 0
31 1 3.6914999999999996 4.973006543664834 1.677 0 0 0
54 1 3.6914999999999996 6.393865556140499 1.677 0 0 0
58 1 4.922 4.262577037426999 1.677 0 0 0
60 1 6.1525 4.973006543664834 1.677 0 0 0
88 1 6.1525 6.393865556140499 1.677 0 0 0
92 1 7.382999999999999 4.262577037427 1.677 0 0 0
94 1 8.6135 4.973006543664834 1.677 0 0 0
122 1 8.6135 6.3938655561405 1.677 0 0 0
126 1 9.844 4.2625770374270004 1.677 0 0 0
128 1 11.074499999999999 4.973006543664834 1.677 0 0 0
156 1 11.074499999999999 6.393865556140499 1.677 0 0 0
160 1 12.305 4.262577037426999 1.677 0 0 0
162 1 13.535499999999999 4.973006543664834 1.677 0 0 0
190 1 13.535499999999999 6.393865556140499 1.677 0 0 0
194 1 14.766 4.262577037426999 1.677 0 0 0
196 1 15.996499999999997 4.973006543664834 1.677 0 0 0
224 1 15.9965 6.393865556140499 1.677 0 0 0
228 1 17.226999999999997 4.2625770374270004 1.677 0 0 0
230 1 18.4575 4.973006543664837 1.677 0 0 0
258 1 18.457499999999996 6.393865556140501 1.677 0 0 0
262 1 19.688 4.2625770374270004 1.677 0 0 0
264 1 20.9185 4.973006543664837 1.677 0 0 0
291 1 20.9185 6.393865556140501 1.677 0 0 0
295 1 22.149 4.2625770374270004 1.677 0 0 0
6 1 0.0 7.104295062378334 1.677 0 0 0
21 1 0.0 8.525154074854 1.677 0 0 0
23 1 1.2304999999999997 9.235583581091834 1.677 0 0 0
27 1 2.461 7.104295062378334 1.677 0 0 0
50 1 2.4609999999999994 8.525154074854 1.677 0 0 0
52 1 3.6915 9.235583581091834 1.677 0 0 0
56 1 4.922 7.104295062378334 1.677 0 0 0
84 1 4.922 8.525154074854 1.677 0 0 0
86 1 6.1525 9.235583581091834 1.677 0 0 0
90 1 7.383 7.104295062378334 1.677 0 0 0
118 1 7.383 8.525154074854 1.677 0 0 0
120 1 8.613499999999998 9.235583581091834 1.677 0 0 0
124 1 9.844 7.104295062378334 1.677 0 0 0
152 1 9.844 8.525154074853997 1.677 0 0 0
154 1 11.074499999999999 9.235583581091834 1.677 0 0 0
158 1 12.305 7.104295062378334 1.677 0 0 0
186 1 12.305 8.525154074854 1.677 0 0 0
188 1 13.535499999999999 9.235583581091833 1.677 0 0 0
192 1 14.765999999999998 7.104295062378332 1.677 0 0 0
220 1 14.765999999999998 8.525154074854 1.677 0 0 0
222 1 15.9965 9.235583581091836 1.677 0 0 0
226 1 17.227 7.104295062378338 1.677 0 0 0
254 1 17.226999999999997 8.525154074854 1.677 0 0 0
256 1 18.4575 9.235583581091838 1.677 0 0 0
260 1 19.688000000000002 7.104295062378338 1.677 0 0 0
287 1 19.688 8.525154074854001 1.677 0 0 0
289 1 20.9185 9.235583581091834 1.677 0 0 0
293 1 22.149 7.104295062378334 1.677 0 0 0
312 1 22.149 8.525154074854001 1.677 0 0 0
19 1 0.0 11.366872099805333 1.677 0 0 0
42 1 0.0 12.787731112280998 1.677 0 0 0
44 1 1.2305000000000001 13.498160618518833 1.677 0 0 0
46 1 1.2304999999999997 10.656442593567498 1.677 0 0 0
48 1 2.461 11.366872099805335 1.677 0 0 0
76 1 2.461 12.787731112280998 1.677 0 0 0
78 1 3.6915 13.498160618518833 1.677 0 0 0
80 1 3.6914999999999996 10.6564425935675 1.677 0 0 0
82 1 4.922 11.366872099805333 1.677 0 0 0
110 1 4.922 12.787731112281 1.677 0 0 0
112 1 6.152499999999999 13.498160618518833 1.677 0 0 0
114 1 6.1525 10.6564425935675 1.677 0 0 0
116 1 7.382999999999999 11.366872099805335 1.677 0 0 0
144 1 7.382999999999999 12.787731112280998 1.677 0 0 0
146 1 8.6135 13.498160618518835 1.677 0 0 0
148 1 8.613499999999998 10.656442593567498 1.677 0 0 0
150 1 9.844 11.366872099805335 1.677 0 0 0
178 1 9.844 12.787731112280998 1.677 0 0 0
180 1 11.074499999999999 13.498160618518833 1.677 0 0 0
182 1 11.0745 10.656442593567498 1.677 0 0 0
184 1 12.304999999999998 11.366872099805333 1.677 0 0 0
212 1 12.305 12.787731112280998 1.677 0 0 0
214 1 13.535499999999999 13.498160618518837 1.677 0 0 0
216 1 13.535499999999999 10.6564425935675 1.677 0 0 0
218 1 14.765999999999998 11.366872099805336 1.677 0 0 0
246 1 14.765999999999998 12.787731112281 1.677 0 0 0
248 1 15.996500000000001 13.498160618518837 1.677 0 0 0
250 1 15.996499999999997 10.6564425935675 1.677 0 0 0
252 1 17.227 11.366872099805336 1.677 0 0 0
279 1 17.227 12.787731112281 1.677 0 0 0
281 1 18.4575 13.498160618518833 1.677 0 0 0
283 1 18.4575 10.6564425935675 1.677 0 0 0
285 1 19.688 11.366872099805335 1.677 0 0 0
304 1 19.688 12.787731112281 1.677 0 0 0
306 1 20.9185 13.498160618518835 1.677 0 0 0
308 1 20.918499999999998 10.656442593567501 1.677 0 0 0
310 1 22.149 11.366872099805335 1.677 0 0 0
321 1 22.148999999999997 12.787731112280998 1.677 0 0 0
40 1 0.0 15.629449137232333 1.677 0 0 0
69 1 0.0 17.050308149708 1.677 0 0 0
72 1 1.2305000000000001 14.919019630994498 1.677 0 0 0
74 1 2.4610000000000003 15.629449137232331 1.677 0 0 0
103 1 2.4610000000000003 17.050308149708 1.677 0 0 0
106 1 3.6915 14.919019630994498 1.677 0 0 0
108 1 4.921999999999999 15.629449137232333 1.677 0 0 0
137 1 4.921999999999999 17.050308149708 1.677 0 0 0
140 1 6.152499999999999 14.919019630994498 1.677 0 0 0
142 1 7.382999999999999 15.629449137232333 1.677 0 0 0
171 1 7.383 17.050308149708 1.677 0 0 0
174 1 8.6135 14.919019630994498 1.677 0 0 0
176 1 9.844 15.629449137232331 1.677 0 0 0
205 1 9.844 17.050308149708 1.677 0 0 0
208 1 11.074499999999999 14.919019630994498 1.677 0 0 0
210 1 12.305 15.629449137232337 1.677 0 0 0
239 1 12.304999999999998 17.050308149708 1.677 0 0 0
242 1 13.535499999999999 14.919019630994498 1.677 0 0 0
244 1 14.766 15.629449137232337 1.677 0 0 0
272 1 14.766 17.050308149708 1.677 0 0 0
275 1 15.9965 14.9190196309945 1.677 0 0 0
277 1 17.227 15.629449137232333 1.677 0 0 0
297 1 17.226999999999997 17.050308149708002 1.677 0 0 0
300 1 18.4575 14.9190196309945 1.677 0 0 0
302 1 19.688000000000002 15.629449137232333 1.677 0 0 0
314 1 19.688 17.050308149707995 1.677 0 0 0
317 1 20.918499999999998 14.919019630994496 1.677 0 0 0
319 1 22.149 15.629449137232335 1.677 0 0 0
323 1 22.149 17.050308149707995 1.677 0 0 0
2 1 0.0 1.420859012475665 5.031000000000001 0 0 0
4 1 0.0 0.0 5.031000000000001 0 0 0
13 1 1.2305 2.1312885187135 5.031000000000001 0 0 0
15 1 2.461 1.420859012475665 5.031000000000001 0 0 0
17 1 2.461 0.0 5.031000000000001 0 0 0
34 1 3.6914999999999996 2.1312885187135 5.031000000000001 0 0 0
36 1 4.922 1.420859012475665 5.031000000000001 0 0 0
38 1 4.922 0.0 5.031000000000001 0 0 0
63 1 6.1525 2.1312885187134993 5.031000000000001 0 0 0
65 1 7.382999999999999 1.420859012475666 5.031000000000001 0 0 0
67 1 7.382999999999999 0.0 5.031000000000001 0 0 0
97 1 8.613499999999998 2.1312885187135002 5.031000000000001 0 0 0
99 1 9.844 1.420859012475666 5.031000000000001 0 0 0
101 1 9.844 0.0 5.031000000000001 0 0 0
131 1 11.0745 2.1312885187135002 5.031000000000001 0 0 0
133 1 12.305 1.420859012475665 5.031000000000001 0 0 0
135 1 12.305 0.0 5.031000000000001 0 0 0
165 1 13.535499999999999 2.1312885187134984 5.031000000000001 0 0 0
167 1 14.765999999999998 1.420859012475665 5.031000000000001 0 0 0
169 1 14.765999999999998 0.0 5.031000000000001 0 0 0
199 1 15.9965 2.1312885187135002 5.031000000000001 0 0 0
201 1 17.226999999999997 1.420859012475665 5.031000000000001 0 0 0
203 1 17.227 0.0 5.031000000000001 0 0 0
233 1 18.4575 2.1312885187135002 5.031000000000001 0 0 0
235 1 19.687999999999995 1.4208590124756633 5.031000000000001 0 0 0
237 1 19.688 0.0 5.031000000000001 0 0 0
267 1 20.918499999999998 2.1312885187135002 5.031000000000001 0 0 0
269 1 22.148999999999997 1.4208590124756597 5.031000000000001 0 0 0
271 1 22.148999999999997 0.0 5.031000000000001 0 0 0
7 1 0.0 5.683436049902665 5.031000000000001 0 0 0
9 1 0.0 4.262577037427 5.031000000000001 0 0 0
11 1 1.2305 3.552147531189165 5.031000000000001 0 0 0
26 1 1.2305 6.393865556140499 5.031000000000001 0 0 0
28 1 2.461 5.683436049902665 5.031000000000001 0 0 0
30 1 2.461 4.262577037427 5.031000000000001 0 0 0
32 1 3.6914999999999996 3.552147531189165 5.031000000000001 0 0 0
55 1 3.6914999999999996 6.393865556140499 5.031000000000001 0 0 0
57 1 4.922 5.6834360499026655 5.031000000000001 0 0 0
59 1 4.922 4.262577037426999 5.031000000000001 0 0 0
61 1 6.1525 3.5521475311891653 5.031000000000001 0 0 0
89 1 6.1525 6.393865556140499 5.031000000000001 0 0 0
91 1 7.382999999999999 5.6834360499026655 5.031000000000001 0 0 0
93 1 7.382999999999999 4.262577037427 5.031000000000001 0 0 0
95 1 8.613499999999998 3.552147531189166 5.031000000000001 0 0 0
123 1 8.6135 6.3938655561405 5.031000000000001 0 0 0
125 1 9.844 5.683436049902665 5.031000000000001 0 0 0
127 1 9.844 4.2625770374270004 5.031000000000001 0 0 0
129 1 11.0745 3.5521475311891644 5.031000000000001 0 0 0
157 1 11.074499999999999 6.393865556140499 5.031000000000001 0 0 0
159 1 12.305 5.683436049902665 5.031000000000001 0 0 0
161 1 12.305 4.262577037426999 5.031000000000001 0 0 0
163 1 13.535499999999999 3.5521475311891653 5.031000000000001 0 0 0
191 1 13.535499999999999 6.393865556140499 5.031000000000001 0 0 0
193 1 14.765999999999998 5.6834360499026655 5.031000000000001 0 0 0
195 1 14.766 4.262577037426999 5.031000000000001 0 0 0
197 1 15.996499999999997 3.5521475311891653 5.031000000000001 0 0 0
225 1 15.9965 6.393865556140499 5.031000000000001 0 0 0
227 1 17.226999999999997 5.683436049902662 5.031000000000001 0 0 0
229 1 17.226999999999997 4.2625770374270004 5.031000000000001 0 0 0
231 1 18.457499999999996 3.5521475311891617 5.031000000000001 0 0 0
259 1 18.457499999999996 6.393865556140501 5.031000000000001 0 0 0
261 1 19.687999999999995 5.683436049902662 5.031000000000001 0 0 0
263 1 19.688 4.2625770374270004 5.031000000000001 0 0 0
265 1 20.918499999999995 3.5521475311891635 5.031000000000001 0 0 0
292 1 20.9185 6.393865556140501 5.031000000000001 0 0 0
294 1 22.148999999999997 5.683436049902664 5.031000000000001 0 0 0
296 1 22.149 4.2625770374270004 5.031000000000001 0 0 0
20 1 0.0 9.946013087329664 5.031000000000001 0 0 0
22 1 0.0 8.525154074854 5.031000000000001 0 0 0
24 1 1.2304999999999997 7.814724568616164 5.031000000000001 0 0 0
49 1 2.4609999999999994 9.946013087329664 5.031000000000001 0 0 0
51 1 2.4609999999999994 8.525154074854 5.031000000000001 0 0 0
53 1 3.6914999999999996 7.814724568616165 5.031000000000001 0 0 0
83 1 4.922 9.946013087329666 5.031000000000001 0 0 0
85 1 4.922 8.525154074854 5.031000000000001 0 0 0
87 1 6.1525 7.814724568616166 5.031000000000001 0 0 0
117 1 7.383 9.946013087329664 5.031000000000001 0 0 0
119 1 7.383 8.525154074854 5.031000000000001 0 0 0
121 1 8.6135 7.814724568616164 5.031000000000001 0 0 0
151 1 9.844 9.946013087329664 5.031000000000001 0 0 0
153 1 9.844 8.525154074853997 5.031000000000001 0 0 0
155 1 11.0745 7.814724568616165 5.031000000000001 0 0 0
185 1 12.305 9.946013087329664 5.031000000000001 0 0 0
187 1 12.305 8.525154074854 5.031000000000001 0 0 0
189 1 13.535499999999999 7.814724568616165 5.031000000000001 0 0 0
219 1 14.765999999999998 9.94601308732966 5.031000000000001 0 0 0
221 1 14.765999999999998 8.525154074854 5.031000000000001 0 0 0
223 1 15.996499999999997 7.814724568616162 5.031000000000001 0 0 0
253 1 17.226999999999997 9.946013087329662 5.031000000000001 0 0 0
255 1 17.226999999999997 8.525154074854 5.031000000000001 0 0 0
257 1 18.457499999999996 7.814724568616162 5.031000000000001 0 0 0
286 1 19.688 9.946013087329662 5.031000000000001 0 0 0
288 1 19.688 8.525154074854001 5.031000000000001 0 0 0
290 1 20.918499999999998 7.814724568616162 5.031000000000001 0 0 0
311 1 22.148999999999997 9.946013087329662 5.031000000000001 0 0 0
313 1 22.149 8.525154074854001 5.031000000000001 0 0 0
43 1 0.0 12.787731112280998 5.031000000000001 0 0 0
45 1 1.2304999999999997 12.077301606043164 5.031000000000001 0 0 0
47 1 1.2304999999999997 10.656442593567498 5.031000000000001 0 0 0
77 1 2.461 12.787731112280998 5.031000000000001 0 0 0
79 1 3.6914999999999996 12.077301606043164 5.031000000000001 0 0 0
81 1 3.6914999999999996 10.6564425935675 5.031000000000001 0 0 0
111 1 4.922 12.787731112281 5.031000000000001 0 0 0
113 1 6.1525 12.077301606043164 5.031000000000001 0 0 0
115 1 6.1525 10.6564425935675 5.031000000000001 0 0 0
145 1 7.382999999999999 12.787731112280998 5.031000000000001 0 0 0
147 1 8.6135 12.077301606043164 5.031000000000001 0 0 0
149 1 8.613499999999998 10.656442593567498 5.031000000000001 0 0 0
179 1 9.844 12.787731112280998 5.031000000000001 0 0 0
181 1 11.074499999999999 12.077301606043164 5.031000000000001 0 0 0
183 1 11.0745 10.656442593567498 5.031000000000001 0 0 0
213 1 12.305 12.787731112280998 5.031000000000001 0 0 0
215 1 13.535499999999999 12.07730160604316 5.031000000000001 0 0 0
217 1 13.535499999999999 10.6564425935675 5.031000000000001 0 0 0
247 1 14.765999999999998 12.787731112281 5.031000000000001 0 0 0
249 1 15.996499999999997 12.07730160604316 5.031000000000001 0 0 0
251 1 15.996499999999997 10.6564425935675 5.031000000000001 0 0 0
280 1 17.227 12.787731112281 5.031000000000001 0 0 0
282 1 18.4575 12.077301606043163 5.031000000000001 0 0 0
284 1 18.4575 10.6564425935675 5.031000000000001 0 0 0
305 1 19.688 12.787731112281 5.031000000000001 0 0 0
307 1 20.918499999999998 12.077301606043163 5.031000000000001 0 0 0
309 1 20.918499999999998 10.656442593567501 5.031000000000001 0 0 0
322 1 22.148999999999997 12.787731112280998 5.031000000000001 0 0 0
41 1 0.0 14.208590124756665 5.031000000000001 0 0 0
70 1 0.0 17.050308149708 5.031000000000001 0 0 0
71 1 1.2305000000000001 16.339878643470165 5.031000000000001 0 0 0
73 1 1.2305000000000001 14.919019630994498 5.031000000000001 0 0 0
75 1 2.461 14.208590124756665 5.031000000000001 0 0 0
104 1 2.4610000000000003 17.050308149708 5.031000000000001 0 0 0
105 1 3.6915 16.339878643470165 5.031000000000001 0 0 0
107 1 3.6915 14.919019630994498 5.031000000000001 0 0 0
109 1 4.922 14.208590124756663 5.031000000000001 0 0 0
138 1 4.921999999999999 17.050308149708 5.031000000000001 0 0 0
139 1 6.1525 16.339878643470165 5.031000000000001 0 0 0
141 1 6.152499999999999 14.919019630994498 5.031000000000001 0 0 0
143 1 7.383 14.208590124756665 5.031000000000001 0 0 0
172 1 7.383 17.050308149708 5.031000000000001 0 0 0
173 1 8.613499999999998 16.339878643470165 5.031000000000001 0 0 0
175 1 8.6135 14.919019630994498 5.031000000000001 0 0 0
177 1 9.844 14.208590124756665 5.031000000000001 0 0 0
206 1 9.844 17.050308149708 5.031000000000001 0 0 0
207 1 11.074499999999999 16.33987864347016 5.031000000000001 0 0 0
209 1 11.074499999999999 14.919019630994498 5.031000000000001 0 0 0
211 1 12.304999999999998 14.208590124756661 5.031000000000001 0 0 0
240 1 12.304999999999998 17.050308149708 5.031000000000001 0 0 0
241 1 13.535499999999997 16.33987864347016 5.031000000000001 0 0 0
243 1 13.535499999999999 14.919019630994498 5.031000000000001 0 0 0
245 1 14.765999999999998 14.208590124756661 5.031000000000001 0 0 0
273 1 14.766 17.050308149708 5.031000000000001 0 0 0
274 1 15.996499999999997 16.33987864347016 5.031000000000001 0 0 0
276 1 15.9965 14.9190196309945 5.031000000000001 0 0 0
278 1 17.226999999999997 14.208590124756661 5.031000000000001 0 0 0
298 1 17.226999999999997 17.050308149708002 5.031000000000001 0 0 0
299 1 18.457499999999996 16.33987864347016 5.031000000000001 0 0 0
301 1 18.4575 14.9190196309945 5.031000000000001 0 0 0
303 1 19.688 14.208590124756663 5.031000000000001 0 0 0
315 1 19.688 17.050308149707995 5.031000000000001 0 0 0
316 1 20.918499999999998 16.339878643470165 5.031000000000001 0 0 0
318 1 20.918499999999998 14.919019630994496 5.031000000000001 0 0 0
320 1 22.148999999999997 14.208590124756663 5.031000000000001 0 0 0
324 1 22.149 17.050308149707995 5.031000000000001 0 0 0
325 1 0.0 2.8417180249513345 8.385 0 0 0
326 1 0.0 0.0 8.385 0 0 0
327 1 1.2305 0.7104295062378347 8.385 0 0 0
331 1 1.2305 2.1312885187135 8.385 0 0 0
332 1 2.461 2.8417180249513345 8.385 0 0 0
333 1 2.461 0.0 8.385 0 0 0
334 1 3.6915 0.7104295062378347 8.385 0 0 0
342 1 3.6914999999999996 2.1312885187135 8.385 0 0 0
343 1 4.922 2.841718024951334 8.385 0 0 0
344 1 4.922 0.0 8.385 0 0 0
345 1 6.1525 0.7104295062378343 8.385 0 0 0
357 1 6.1525 2.1312885187134993 8.385 0 0 0
358 1 7.382999999999999 2.8417180249513345 8.385 0 0 0
359 1 7.382999999999999 0.0 8.385 0 0 0
360 1 8.613499999999998 0.7104295062378343 8.385 0 0 0
374 1 8.613499999999998 2.1312885187135002 8.385 0 0 0
375 1 9.844 2.8417180249513336 8.385 0 0 0
376 1 9.844 0.0 8.385 0 0 0
377 1 11.0745 0.7104295062378334 8.385 0 0 0
391 1 11.0745 2.1312885187135002 8.385 0 0 0
392 1 12.305 2.8417180249513336 8.385 0 0 0
393 1 12.305 0.0 8.385 0 0 0
394 1 13.535499999999999 0.7104295062378352 8.385 0 0 0
408 1 13.535499999999999 2.1312885187134984 8.385 0 0 0
409 1 14.765999999999998 2.8417180249513354 8.385 0 0 0
410 1 14.765999999999998 0.0 8.385 0 0 0
411 1 15.9965 0.7104295062378352 8.385 0 0 0
425 1 15.9965 2.1312885187135002 8.385 0 0 0
426 1 17.226999999999997 2.8417180249513336 8.385 0 0 0
427 1 17.227 0.0 8.385 0 0 0
428 1 18.457499999999996 0.7104295062378334 8.385 0 0 0
442 1 18.4575 2.1312885187135002 8.385 0 0 0
443 1 19.688 2.841718024951337 8.385 0 0 0
444 1 19.688 0.0 8.385 0 0 0
445 1 20.918499999999998 0.7104295062378405 8.385 0 0 0
459 1 20.918499999999998 2.1312885187135002 8.385 0 0 0
460 1 22.149 2.8417180249513407 8.385 0 0 0
461 1 22.148999999999997 0.0 8.385 0 0 0
329 1 0.0 4.262577037427 8.385 0 0 0
330 1 1.2305000000000001 4.973006543664834 8.385 0 0 0
338 1 1.2305 6.393865556140499 8.385 0 0 0
340 1 2.461 4.262577037427 8.385 0 0 0
341 1 3.6914999999999996 4.973006543664834 8.385 0 0 0
353 1 3.6914999999999996 6.393865556140499 8.385 0 0 0
355 1 4.922 4.262577037426999 8.385 0 0 0
356 1 6.1525 4.973006543664834 8.385 0 0 0
370 1 6.1525 6.393865556140499 8.385 0 0 0
372 1 7.382999999999999 4.262577037427 8.385 0 0 0
373 1 8.6135 4.973006543664834 8.385 0 0 0
387 1 8.6135 6.3938655561405 8.385 0 0 0
389 1 9.844 4.2625770374270004 8.385 0 0 0
390 1 11.074499999999999 4.973006543664834 8.385 0 0 0
404 1 11.074499999999999 6.393865556140499 8.385 0 0 0
406 1 12.305 4.262577037426999 8.385 0 0 0
407 1 13.535499999999999 4.973006543664834 8.385 0 0 0
421 1 13.535499999999999 6.393865556140499 8.385 0 0 0
423 1 14.766 4.262577037426999 8.385 0 0 0
424 1 15.996499999999997 4.973006543664834 8.385 0 0 0
438 1 15.9965 6.393865556140499 8.385 0 0 0
440 1 17.226999999999997 4.2625770374270004 8.385 0 0 0
441 1 18.4575 4.973006543664837 8.385 0 0 0
455 1 18.457499999999996 6.393865556140501 8.385 0 0 0
457 1 19.688 4.2625770374270004 8.385 0 0 0
458 1 20.9185 4.973006543664837 8.385 0 0 0
471 1 20.9185 6.393865556140501 8.385 0 0 0
473 1 22.149 4.2625770374270004 8.385 0 0 0
328 1 0.0 7.104295062378334 8.385 0 0 0
336 1 0.0 8.525154074854 8.385 0 0 0
337 1 1.2304999999999997 9.235583581091834 8.385 0 0 0
339 1 2.461 7.104295062378334 8.385 0 0 0
351 1 2.4609999999999994 8.525154074854 8.385 0 0 0
352 1 3.6915 9.235583581091834 8.385 0 0 0
354 1 4.922 7.104295062378334 8.385 0 0 0
368 1 4.922 8.525154074854 8.385 0 0 0
369 1 6.1525 9.235583581091834 8.385 0 0 0
371 1 7.383 7.104295062378334 8.385 0 0 0
385 1 7.383 8.525154074854 8.385 0 0 0
386 1 8.613499999999998 9.235583581091834 8.385 0 0 0
388 1 9.844 7.104295062378334 8.385 0 0 0
402 1 9.844 8.525154074853997 8.385 0 0 0
403 1 11.074499999999999 9.235583581091834 8.385 0 0 0
405 1 12.305 7.104295062378334 8.385 0 0 0
419 1 12.305 8.525154074854 8.385 0 0 0
420 1 13.535499999999999 9.235583581091833 8.385 0 0 0
422 1 14.765999999999998 7.104295062378332 8.385 0 0 0
436 1 14.765999999999998 8.525154074854 8.385 0 0 0
437 1 15.9965 9.235583581091836 8.385 0 0 0
439 1 17.227 7.104295062378338 8.385 0 0 0
453 1 17.226999999999997 8.525154074854 8.385 0 0 0
454 1 18.4575 9.235583581091838 8.385 0 0 0
456 1 19.688000000000002 7.104295062378338 8.385 0 0 0
469 1 19.688 8.525154074854001 8.385 0 0 0
470 1 20.9185 9.235583581091834 8.385 0 0 0
472 1 22.149 7.104295062378334 8.385 0 0 0
481 1 22.149 8.525154074854001 8.385 0 0 0
335 1 0.0 11.366872099805333 8.385 0 0 0
347 1 0.0 12.787731112280998 8.385 0 0 0
348 1 1.2305000000000001 13.498160618518833 8.385 0 0 0
349 1 1.2304999999999997 10.656442593567498 8.385 0 0 0
350 1 2.461 11.366872099805335 8.385 0 0 0
364 1 2.461 12.787731112280998 8.385 0 0 0
365 1 3.6915 13.498160618518833 8.385 0 0 0
366 1 3.6914999999999996 10.6564425935675 8.385 0 0 0
367 1 4.922 11.366872099805333 8.385 0 0 0
381 1 4.922 12.787731112281 8.385 0 0 0
382 1 6.152499999999999 13.498160618518833 8.385 0 0 0
383 1 6.1525 10.6564425935675 8.385 0 0 0
384 1 7.382999999999999 11.366872099805335 8.385 0 0 0
398 1 7.382999999999999 12.787731112280998 8.385 0 0 0
399 1 8.6135 13.498160618518835 8.385 0 0 0
400 1 8.613499999999998 10.656442593567498 8.385 0 0 0
401 1 9.844 11.366872099805335 8.385 0 0 0
415 1 9.844 12.787731112280998 8.385 0 0 0
416 1 11.074499999999999 13.498160618518833 8.385 0 0 0
417 1 11.0745 10.656442593567498 8.385 0 0 0
418 1 12.304999999999998 11.366872099805333 8.385 0 0 0
432 1 12.305 12.787731112280998 8.385 0 0 0
433 1 13.535499999999999 13.498160618518837 8.385 0 0 0
434 1 13.535499999999999 10.6564425935675 8.385 0 0 0
435 1 14.765999999999998 11.366872099805336 8.385 0 0 0
449 1 14.765999999999998 12.787731112281 8.385 0 0 0
450 1 15.996500000000001 13.498160618518837 8.385 0 0 0
451 1 15.996499999999997 10.6564425935675 8.385 0 0 0
452 1 17.227 11.366872099805336 8.385 0 0 0
465 1 17.227 12.787731112281 8.385 0 0 0
466 1 18.4575 13.498160618518833 8.385 0 0 0
467 1 18.4575 10.6564425935675 8.385 0 0 0
468 1 19.688 11.366872099805335 8.385 0 0 0
477 1 19.688 12.787731112281 8.385 0 0 0
478 1 20.9185 13.498160618518835 8.385 0 0 0
479 1 20.918499999999998 10.656442593567501 8.385 0 0 0
480 1 22.149 11.366872099805335 8.385 0 0 0
485 1 22.148999999999997 12.787731112280998 8.385 0 0 0
346 1 0.0 15.629449137232333 8.385 0 0 0
361 1 0.0 17.050308149708 8.385 0 0 0
362 1 1.2305000000000001 14.919019630994498 8.385 0 0 0
363 1 2.4610000000000003 15.629449137232331 8.385 0 0 0
378 1 2.4610000000000003 17.050308149708 8.385 0 0 0
379 1 3.6915 14.919019630994498 8.385 0 0 0
380 1 4.921999999999999 15.629449137232333 8.385 0 0 0
395 1 4.921999999999999 17.050308149708 8.385 0 0 0
396 1 6.152499999999999 14.919019630994498 8.385 0 0 0
397 1 7.382999999999999 15.629449137232333 8.385 0 0 0
412 1 7.383 17.050308149708 8.385 0 0 0
413 1 8.6135 14.919019630994498 8.385 0 0 0
414 1 9.844 15.629449137232331 8.385 0 0 0
429 1 9.844 17.050308149708 8.385 0 0 0
430 1 11.074499999999999 14.919019630994498 8.385 0 0 0
431 1 12.305 15.629449137232337 8.385 0 0 0
446 1 12.304999999999998 17.050308149708 8.385 0 0 0
447 1 13.535499999999999 14.919019630994498 8.385 0 0 0
448 1 14.766 15.629449137232337 8.385 0 0 0
462 1 14.766 17.050308149708 8.385 0 0 0
463 1 15.9965 14.9190196309945 8.385 0 0 0
464 1 17.227 15.629449137232333 8.385 0 0 0
474 1 17.226999999999997 17.050308149708002 8.385 0 0 0
475 1 18.4575 14.9190196309945 8.385 0 0 0
476 1 19.688000000000002 15.629449137232333 8.385 0 0 0
482 1 19.688 17.050308149707995 8.385 0 0 0
483 1 20.918499999999998 14.919019630994496 8.385 0 0 0
484 1 22.149 15.629449137232335 8.385 0 0 0
486 1 22.149 17.050308149707995 8.385 0 0 0
4644 2 17.757630265881314 1.3406750225280755 11.096010669242206 0 1 2
2082 2 16.577309508459884 1.550988475803209 13.937514697901717 0 0 0
2051 2 20.27632196699389 1.9100142856715971 10.611546695918452 0 0 1
2744 2 20.158409003769183 11.305916808680587 27.34440709383096 0 0 0
4758 2 22.651344866596194 1.9387910940056319 13.945701642756076 0 1 1
521 2 15.960820566971314 4.234048682069108 14.071640236180505 0 1 1
2054 2 16.527595089484514 3.8795177972891826 11.13066416974908 0 0 0
514 2 18.389311615940127 5.84392331532798 11.137737707788636 0 1 0
500 2 20.68787287451695 4.511800295283993 11.450600740271154 0 0 1
4661 2 20.4491878282974 4.229197666731577 14.493619408535755 0 0 1
3440 2 21.175006171038575 16.007420048837282 26.655457387891115 0 0 -1
528 2 18.242825618731022 9.058356338306494 11.285705016610573 0 0 0
525 2 18.570098877375674 11.622556719721514 12.651218183211304 0 0 0
2713 2 22.124260246397597 6.550509001586587 10.745347887976346 0 0 0
530 2 20.267759691182093 13.35517424530446 11.3599258839176 0 0 1
2755 2 20.477187467193925 16.15314271694426 11.187374345392996 0 0 0
515 2 21.46130964196026 17.188266693387558 13.672280332993395 0 0 0
549 2 21.397734824367895 3.895167198783153 25.20133436816211 0 0 1
507 2 19.134122318477154 1.5949740893776196 14.621565536568527 0 0 1
4720 2 18.085490060371036 5.467596239842095 15.32624445179733 0 1 1
1542 2 22.805212048377616 1.6466467077250502 17.672861370703135 0 1 0
3363 2 19.185153383832645 14.055715152319854 27.315531635557857 0 0 -1
496 2 18.690610644696015 7.441300667893639 13.651337984092338 0 0 0
2623 2 20.79388129920127 9.670330946463846 14.081169631911433 0 0 -1
2772 2 21.782922533671346 8.764942926222215 26.677567802046042 0 1 0
3258 2 22.125758424051952 8.780717427437796 16.82461810871757 0 0 0
2590 2 22.780071649312568 15.303681457636602 15.064381176908057 0 0 -1
2095 2 20.942355992840422 1.748928824517366 27.028749307090237 0 1 0
520 2 20.235334271339056 11.44365629830056 22.892456311428994 0 0 0
4775 2 21.766525429747684 6.923418740803405 13.740248913097497 0 1 0
4746 2 19.91379981809454 6.832310384119862 17.522651316220017 0 1 0
533 2 21.4196867325454 4.692385636643908 18.885169201155698 0 0 0
3356 2 20.184953260969962 16.356793115701485 23.96558581146846 0 0 0
499 2 21.218723501384577 11.42123338221455 18.23899609060479 0 0 0
4829 2 19.21930356361387 13.966891376158701 23.132167072071976 0 1 0
2612 2 19.661573617731214 3.0487190533744997 20.34358251442173 0 0 0
3274 2 21.07268331497326 9.133739820487936 10.927858307608295 0 0 1
535 2 20.5765680093027 2.0734939755035207 23.064263239095627 1 0 0
2703 2 19.7783364484798 5.855345806865425 21.727249539526778 0 1 -1
523 2 21.682149511826328 7.657900193432187 23.84741180649621 0 0 -1
2689 2 18.76640835796554 7.644208787561404 19.860752610064683 0 0 0
2641 2 18.190428570994406 9.575507273611167 26.430366769492373 0 0 0
2763 2 19.2270429437701 8.968890481175617 23.7688320185268 0 0 0
509 2 20.190379280950655 10.037168330389258 20.626853446954993 0 1 0
2745 2 18.146419355534412 2.8369023594771936 24.480633332650076 0 0 -1
3263 2 22.284137134135975 11.598167229209583 10.608259696799303 0 0 -1
541 2 19.00894642980789 5.819260485428747 24.34284114118004 0 0 0
2784 2 15.727773902330492 10.829472763709383 26.626876738026702 0 0 0
2771 2 18.055153929931677 6.644754320186969 27.20951096415554 0 1 0
531 2 20.761193861940086 5.991457480361743 27.010537734438238 0 0 0
517 2 16.435610503746755 13.635770458850578 27.16511194281271 0 0 0
4662 2 20.633459193111758 0.6245521532869058 19.079196495432626 0 1 0
4653 2 22.77200849767593 4.115474851846317 16.423269317656494 0 1 1
2762 2 18.21483350156534 1.512659403364256 26.92221616630612 0 0 2
2673 2 22.626950590494374 8.937060538217553 21.570866510508857 0 0 0
1548 2 18.627456167825823 0.041670744377186646 16.798898259838023 0 1 0
513 2 22.89713258269766 11.648283564624418 23.728977384606626 0 0 1
522 2 22.93477842374675 16.439808340276432 10.503231547182429 0 0 1
557 1 0.0 19.892026174659332 1.677 0 0 0
559 1 1.2305000000000001 17.76073765594583 1.677 0 0 0
566 1 1.2305000000000001 19.1815966684215 1.677 0 0 0
568 1 2.4609999999999994 19.892026174659332 1.677 0 0 0
570 1 3.6914999999999996 17.76073765594583 1.677 0 0 0
585 1 3.6914999999999996 19.1815966684215 1.677 0 0 0
587 1 4.922 19.892026174659332 1.677 0 0 0
589 1 6.1525 17.76073765594583 1.677 0 0 0
612 1 6.1525 19.1815966684215 1.677 0 0 0
614 1 7.382999999999999 19.892026174659332 1.677 0 0 0
616 1 8.613499999999998 17.76073765594583 1.677 0 0 0
644 1 8.6135 19.1815966684215 1.677 0 0 0
646 1 9.844 19.892026174659335 1.677 0 0 0
648 1 11.0745 17.760737655945835 1.677 0 0 0
676 1 11.074499999999999 19.1815966684215 1.677 0 0 0
678 1 12.305000000000001 19.892026174659335 1.677 0 0 0
680 1 13.5355 17.760737655945835 1.677 0 0 0
708 1 13.535499999999999 19.1815966684215 1.677 0 0 0
710 1 14.766 19.892026174659332 1.677 0 0 0
712 1 15.9965 17.76073765594583 1.677 0 0 0
740 1 15.9965 19.1815966684215 1.677 0 0 0
742 1 17.227 19.892026174659335 1.677 0 0 0
744 1 18.4575 17.76073765594583 1.677 0 0 0