
### Dimensions ###
variable Z_G equal 10.062000000000001
variable Z_W equal 17.781522602

variable	XDIM string 68.908
variable 	YDIM string 68.92587069519459


### IMPORT ATOMS ###
read_data ../Box_Setup/data.Ibeam_240K
Reading data file ...
  orthogonal box = (0.0000000 0.0000000 0.0000000) to (68.908000 68.925871 27.952761)
  3 by 4 by 1 MPI processor grid
  reading atoms ...
  6871 atoms
  reading velocities ...
  6871 velocities
  read_data CPU = 0.343 seconds
group water type 2
1355 atoms in group water
group graphite type 1
5516 atoms in group graphite


# Define potential
#
pair_style          sw
pair_coeff * * MLC_e.sw C mW

# Add velocity/set timestep
#

fix		1 graphite setforce 0.0 0.0 0.0
velocity 	graphite set 0.0 0.0 0.0
velocity            water create ${START_TEMP} 120598 rot yes dist gaussian
velocity            water create 240 120598 rot yes dist gaussian
timestep            5.0

# Define output
#
compute 1 water msd
compute 2 water temp


thermo	            100
thermo_style custom step c_2 press vol etotal ke pe c_1[4] density

# Neighbor lists
#
neigh_modify        delay 0 every 1 check yes


# Set fixes
#
fix                 2 water momentum 10 linear 1 1 1 rescale
fix                 3 all nve
fix                 4 water temp/csvr ${START_TEMP} ${START_TEMP} 500.0 928347
fix                 4 water temp/csvr 240 ${START_TEMP} 500.0 928347
fix                 4 water temp/csvr 240 240 500.0 928347

# Run 0.05 ns equilibration
#
dump                1 all custom 100 ${DIR}/eq.${NAME}.dump id type x y z vx vy vz
dump                1 all custom 100 run_0/eq.${NAME}.dump id type x y z vx vy vz
dump                1 all custom 100 run_0/eq.ibeam_cooling_0.dump id type x y z vx vy vz
run                 10000
Neighbor list info ...
  update every 1 steps, delay 0 steps, check yes
  max neighbors/atom: 2000, page size: 100000
  master list distance cutoff = 6.6747184
  ghost atom cutoff = 6.6747184
  binsize = 3.3373592, bins = 21 21 9
  1 neighbor lists, perpetual/occasional/extra = 1 0 0
  (1) pair sw, perpetual
      attributes: full, newton on
      pair build: full/bin/atomonly
      stencil: full/bin/3d
      bin: standard
Per MPI rank memory allocation (min/avg/max) = 4.854 | 4.857 | 4.859 Mbytes
Step c_2 Press Volume TotEng KinEng PotEng c_1[4] Density 
       0          240   -543.35458    132762.87   -12919.671    968.64403   -13888.315            0    1.1339035 
     100    243.26097   -267.81294    132762.87   -12887.087    981.80535   -13868.893   0.91708838    1.1339035 
     200    234.43478   -427.39246    132762.87   -12910.653    946.18271   -13856.836    1.4510015    1.1339035 
     300    249.19806   -596.25641    132762.87   -12906.979    1005.7676   -13912.747    1.8610709    1.1339035 
     400    244.22395   -525.20784    132762.87   -12918.643    985.69198   -13904.335    2.2184878    1.1339035 
     500     243.8073   -368.87249    132762.87   -12926.454    984.01034   -13910.465    2.8047856    1.1339035 
     600     236.4035    -506.2738    132762.87   -13002.373    954.12849   -13956.501     3.305022    1.1339035 
     700    231.71799   -465.88211    132762.87   -12983.188    935.21772   -13918.406    3.7860128    1.1339035 
     800    227.85299   -726.40926    132762.87   -13013.984     919.6185   -13933.602    4.0887162    1.1339035 
     900     237.3337    -427.1385    132762.87   -12980.972    957.88282   -13938.855     4.481727    1.1339035 
    1000    234.19561   -636.98686    132762.87   -12933.119    945.21744   -13878.336    4.9004132    1.1339035 
    1100    234.83854   -708.93425    132762.87   -12942.254     947.8123   -13890.067    5.2039382    1.1339035 
    1200    234.37702   -456.19562    132762.87   -12972.387    945.94959   -13918.337    5.4789269    1.1339035 
    1300    236.70661   -469.76308    132762.87   -12930.938    955.35184    -13886.29    5.7382439    1.1339035 
    1400     242.1155   -506.04962    132762.87   -12873.945    977.18221   -13851.128    5.9964736    1.1339035 
    1500    238.59198   -571.19105    132762.87   -12883.294    962.96124   -13846.255     6.066758    1.1339035 
    1600    239.50745   -414.21352    132762.87   -12856.793    966.65609   -13823.449    6.3496234    1.1339035 
    1700    240.44303   -315.32698    132762.87   -12883.584    970.43211   -13854.017    6.7416338    1.1339035 
    1800    243.16276   -697.53645    132762.87    -12885.84      981.409   -13867.249    7.1804072    1.1339035 
    1900    242.38771   -353.05009    132762.87   -12822.683    978.28087   -13800.964    7.4975443    1.1339035 
    2000    251.85139   -435.38082    132762.87   -12804.099    1016.4764   -13820.575    7.6794429    1.1339035 
    2100    254.10087   -597.95282    132762.87   -12816.895    1025.5554   -13842.451    7.8905146    1.1339035 
    2200    248.40895   -693.70368    132762.87   -12816.416    1002.5827   -13818.998    8.2527776    1.1339035 
    2300    242.15743   -455.37508    132762.87   -12862.756    977.35145   -13840.108    8.5598258    1.1339035 
    2400    241.42958   -578.93281    132762.87   -12855.824    974.41383   -13830.238    9.0502819    1.1339035 
    2500    247.03726   -509.12387    132762.87   -12852.626    997.04652   -13849.673    9.3730639    1.1339035 
    2600    234.55486   -473.91941    132762.87   -12878.236    946.66734   -13824.904    9.8492336    1.1339035 
    2700    241.93787   -365.09209    132762.87   -12859.806    976.46529   -13836.271     10.34011    1.1339035 
    2800    248.26567   -441.77129    132762.87   -12872.641    1002.0044   -13874.646    10.676936    1.1339035 
    2900    235.99388    -605.5756    132762.87   -12922.338    952.47526   -13874.813    11.322437    1.1339035 
    3000    230.16053   -449.99903    132762.87    -12940.51    928.93175   -13869.441    11.971191    1.1339035 
    3100    235.29433   -453.02362    132762.87   -12936.688    949.65186    -13886.34      12.2875    1.1339035 
    3200    233.68249   -354.60426    132762.87   -12947.581    943.14645   -13890.727    12.477169    1.1339035 
    3300    237.25004   -463.62556    132762.87   -12915.559    957.54515   -13873.104    12.547019    1.1339035 
    3400    234.37407   -431.52228    132762.87   -12934.035    945.93767   -13879.972    12.913996    1.1339035 
    3500    245.84837   -520.63248    132762.87    -12933.43    992.24815   -13925.679    13.162675    1.1339035 
    3600    237.34716    -343.4391    132762.87   -12927.837    957.93713   -13885.774    13.591167    1.1339035 
    3700    234.79839   -367.07741    132762.87     -12958.1    947.65023   -13905.751    13.731427    1.1339035 
    3800    246.30999   -566.40778    132762.87   -12942.176    994.11127   -13936.287    14.051223    1.1339035 
    3900    231.01484    -380.0242    132762.87   -12959.426    932.37978   -13891.806    14.157234    1.1339035 
    4000    239.59925   -541.73735    132762.87   -12964.442    967.02661   -13931.469    14.359829    1.1339035 
    4100    241.57282   -382.64341    132762.87   -12934.068    974.99196    -13909.06     14.64688    1.1339035 
    4200    245.00006   -649.18118    132762.87   -12913.525    988.82438   -13902.349    14.812977    1.1339035 
    4300    248.26384   -334.72364    132762.87   -12858.858     1001.997   -13860.855    15.041663    1.1339035 
    4400    248.31512   -544.47534    132762.87   -12868.004     1002.204   -13870.208    15.221735    1.1339035 
    4500    244.03856   -490.87946    132762.87   -12931.385    984.94371   -13916.329    15.616246    1.1339035 
    4600    242.06981   -527.32758    132762.87   -12953.727    976.99783   -13930.725    16.000872    1.1339035 
    4700    248.59825   -442.12399    132762.87   -12958.415    1003.3467   -13961.762    16.404094    1.1339035 
    4800    236.93079   -498.30924    132762.87   -12930.739    956.25667   -13886.996    16.802153    1.1339035 
    4900    231.97177   -444.29904    132762.87   -12947.889    936.24195   -13884.131    17.302209    1.1339035 
    5000     242.8699     -531.534    132762.87   -12958.988    980.22698   -13939.215    17.387944    1.1339035 
    5100    230.61597   -394.82822    132762.87   -12964.373    930.76992   -13895.143    17.878815    1.1339035 
    5200    235.05949   -255.25797    132762.87   -12948.905    948.70406   -13897.609    18.500724    1.1339035 
    5300    240.97681   -361.65166    132762.87   -12986.145    972.58644   -13958.732    18.655253    1.1339035 
    5400    238.28808   -579.11601    132762.87   -12941.898     961.7347   -13903.633    19.153992    1.1339035 
    5500    235.90554   -502.60115    132762.87   -12972.132    952.11874   -13924.251    19.134151    1.1339035 
    5600    238.14584   -390.63275    132762.87   -12968.673    961.16059   -13929.834       18.986    1.1339035 
    5700    253.32807   -500.78792    132762.87   -12929.568    1022.4364   -13952.004    19.238055    1.1339035 
    5800    247.31692   -483.43471    132762.87   -12892.582    998.17524   -13890.757    19.281497    1.1339035 
    5900    237.47325   -665.41721    132762.87   -12926.916    958.44601   -13885.362     19.70405    1.1339035 
    6000    232.01328   -504.22435    132762.87   -12993.833    936.40948   -13930.242    19.929631    1.1339035 
    6100    234.03931   -581.04998    132762.87   -12977.035    944.58658   -13921.622    20.207532    1.1339035 
    6200    235.91546   -390.44629    132762.87   -12962.593    952.15877   -13914.751    20.630054    1.1339035 
    6300    240.63236   -487.34805    132762.87   -12934.824    971.19625   -13906.021     20.91949    1.1339035 
    6400    234.43904   -527.12927    132762.87   -12942.386    946.19991   -13888.586    21.203579    1.1339035 
    6500    236.90824   -500.17659    132762.87   -12948.877    956.16563   -13905.042      21.8919    1.1339035 
    6600    229.14315   -504.34118    132762.87   -12992.038    924.82559   -13916.864    22.362279    1.1339035 
    6700    238.97025   -437.26372    132762.87   -13004.626    964.48793   -13969.114    22.956131    1.1339035 
    6800    230.25102   -565.44572    132762.87   -12985.943    929.29697    -13915.24    23.287492    1.1339035 
    6900    226.01195   -526.88988    132762.87   -13020.261    912.18803   -13932.449    23.858271    1.1339035 
    7000    228.75495   -432.69206    132762.87   -13001.461    923.25883    -13924.72    24.362253    1.1339035 
    7100    240.89629   -302.16872    132762.87   -12924.964    972.26149   -13897.226    25.161744    1.1339035 
    7200    235.80172   -583.15909    132762.87   -12934.608    951.69969   -13886.308    25.587374    1.1339035 
    7300    229.31514   -496.93767    132762.87   -13000.675    925.51974   -13926.194    26.101426    1.1339035 
    7400    231.34408   -215.48266    132762.87   -13006.252    933.70858    -13939.96    25.975914    1.1339035 
    7500    236.39413    -569.9275    132762.87    -13019.51    954.09067     -13973.6    26.251668    1.1339035 
    7600    232.26049   -422.81306    132762.87   -13017.715    937.40723   -13955.122    26.617403    1.1339035 
    7700    230.75194   -421.09787    132762.87   -12991.754    931.31871   -13923.073    26.619716    1.1339035 
    7800    237.82517   -440.87159    132762.87   -12947.123    959.86639   -13906.989    27.041397    1.1339035 
    7900    237.18453   -466.55659    132762.87   -12952.466    957.28073   -13909.747    27.204588    1.1339035 
    8000    232.65927   -475.28416    132762.87   -12944.043    939.01671    -13883.06     27.74629    1.1339035 
    8100    232.01021   -503.38924    132762.87   -12957.547    936.39711   -13893.944    27.771524    1.1339035 
    8200    234.28781   -431.16523    132762.87   -12996.135    945.58952   -13941.724    27.883889    1.1339035 
    8300    236.94456   -437.67352    132762.87   -13011.129    956.31221   -13967.441    27.893902    1.1339035 
    8400    234.44497   -662.09494    132762.87   -13002.037    946.22384   -13948.261    28.040022    1.1339035 
    8500    237.15992   -572.97062    132762.87   -12991.211    957.18142   -13948.393    28.430559    1.1339035 
    8600    242.22874   -572.73279    132762.87   -12968.236    977.63926   -13945.875     28.75996    1.1339035 
    8700    229.30236   -549.34026    132762.87   -13022.726    925.46817   -13948.194    28.969368    1.1339035 
    8800    241.93941   -635.94027    132762.87   -12974.924    976.47151   -13951.396    28.940263    1.1339035 
    8900    236.00723   -385.91691    132762.87   -12984.095    952.52917   -13936.625      28.7613    1.1339035 
    9000    243.22009   -519.24217    132762.87   -12950.487    981.64039   -13932.127    29.307008    1.1339035 
    9100    243.01821   -469.38596    132762.87   -12949.407    980.82556   -13930.232      29.7951    1.1339035 
    9200    238.68368   -406.90114    132762.87   -12985.926    963.33134   -13949.257    29.900979    1.1339035 
    9300    232.34333   -331.65208    132762.87   -12999.833     937.7416   -13937.575    29.929784    1.1339035 
    9400    240.05062   -624.95867    132762.87   -13004.286    968.84833   -13973.134    30.477181    1.1339035 
    9500    236.22474   -413.03637    132762.87   -12976.729    953.40701   -13930.136    30.708389    1.1339035 
    9600    240.32719   -317.98687    132762.87   -13044.751    969.96457   -14014.715    30.696495    1.1339035 
    9700    232.58188   -458.73061    132762.87   -12984.054    938.70437   -13922.759    31.087395    1.1339035 
    9800    234.91554   -574.06074    132762.87   -13010.587    948.12305    -13958.71    31.336509    1.1339035 
    9900     244.6351   -475.28776    132762.87   -12962.799    987.35136    -13950.15    31.450861    1.1339035 
   10000    244.01129   -626.74085    132762.87   -12914.808    984.83369   -13899.641    31.556114    1.1339035 
Loop time of 165.538 on 12 procs for 10000 steps with 6871 atoms

Performance: 26.097 ns/day, 0.920 hours/ns, 60.409 timesteps/s
88.3% CPU use with 12 MPI tasks x no OpenMP threads

MPI task timing breakdown:
Section |  min time  |  avg time  |  max time  |%varavg| %total
---------------------------------------------------------------
Pair    | 4.2463     | 12.531     | 23.584     | 217.1 |  7.57
Neigh   | 0.77283    | 1.0639     | 1.4595     |  25.4 |  0.64
Comm    | 65.483     | 77.414     | 87.221     |  88.0 | 46.77
Output  | 1.8017     | 1.822      | 1.8431     |   0.7 |  1.10
Modify  | 46         | 53.585     | 60.347     |  68.2 | 32.37
Other   |            | 19.12      |            |       | 11.55

Nlocal:        572.583 ave         740 max         471 min
Histogram: 4 3 1 0 0 0 0 0 2 2
Nghost:        2060.83 ave        2279 max        1899 min
Histogram: 1 2 3 2 0 0 0 2 0 2
Neighs:        0.00000 ave           0 max           0 min
Histogram: 12 0 0 0 0 0 0 0 0 0
FullNghs:      60506.8 ave       75781 max       51750 min
Histogram: 4 2 1 1 0 0 0 2 0 2

Total # of neighbors = 726082
Ave neighs/atom = 105.67341
Neighbor list builds = 549
Dangerous builds = 0
write_data 	    ${DIR}/data.${NAME}_eq
write_data 	    run_0/data.${NAME}_eq
write_data 	    run_0/data.ibeam_cooling_0_eq
System init for write_data ...

undump              1
unfix               4



################################################
#######         Run Simulation         #########
################################################

reset_timestep      0
timestep	    10.0
log                 ${DIR}/log.run_${NAME}
log                 run_0/log.run_${NAME}
log                 run_0/log.run_ibeam_cooling_0
