
# Set production fixes - Nose/Hoover
#
fix                 4 water temp/csvr ${START_TEMP} ${END_TEMP} 500.0 928347
fix                 4 water temp/csvr 240 ${END_TEMP} 500.0 928347
fix                 4 water temp/csvr 240 227 500.0 928347


## divide "droplet" into core and surface
#region		core_reg cylinder z 135 135 44.6 20 INF units box
#region		surface_reg cylinder z 135 135 44.6 20 INF units box side out
#group		core dynamic all region core_reg
#group		surface dynamic all region surface_reg

## compute pressure core
#compute        peratom_core core stress/atom NULL
#compute        p_core core reduce sum c_peratom_core[1] c_peratom_core[2] c_peratom_core[3]
#variable       press_core equal -(c_p_core[1]+c_p_core[2]+c_p_core[3])/(3*1249982.5)


## compute pressure surface
#compute        peratom_surf surface stress/atom NULL
#compute        p_surf surface reduce sum c_peratom_surf[1] c_peratom_surf[2] #c_peratom_surf[3]
#variable       press_surf equal -(c_p_surf[1]+c_p_surf[2]+c_p_surf[3])/(3*42395)

## compute total pressure of drop
compute        peratom water stress/atom NULL
compute        p water reduce sum c_peratom[1] c_peratom[2] c_peratom[3]
variable       press equal -(c_p[1]+c_p[2]+c_p[3])/(3*50320)


# compute order parameter
compute        3 all orientorder/atom nnn NULL cutoff 3.5

# compute center of mass of bridge
compute 	4 water com

# Run simulation
thermo_style        custom step c_2 press vol etotal ke pe v_press c_1[4] c_4[*]
thermo              200
dump		     1 water custom 400 ${DIR}/prod.${NAME}.dump id type x y z vx vy vz c_3[*] c_peratom[*]
dump		     1 water custom 400 run_19/prod.${NAME}.dump id type x y z vx vy vz c_3[*] c_peratom[*]
dump		     1 water custom 400 run_19/prod.ibeam_cooling_19.dump id type x y z vx vy vz c_3[*] c_peratom[*]
run                 ${STEPS}
run                 5200000
Neighbor list info ...
  update every 1 steps, delay 0 steps, check yes
  max neighbors/atom: 2000, page size: 100000
  master list distance cutoff = 6.67472
  ghost atom cutoff = 6.67472
  binsize = 3.33736, bins = 48 13 11
  2 neighbor lists, perpetual/occasional/extra = 1 1 0
  (1) pair sw, perpetual
      attributes: full, newton on
      pair build: full/bin/atomonly
      stencil: full/bin/3d
      bin: standard
  (2) compute orientorder/atom, occasional, copy from (1)
      attributes: full, newton on
      pair build: copy
      stencil: none
      bin: none
Per MPI rank memory allocation (min/avg/max) = 0.8532 | 5.986 | 7.261 Mbytes
Step c_2 Press Volume TotEng KinEng PotEng v_press c_1[4] c_4[1] c_4[2] c_4[3] 
       0    240.14952   -193.85669    216009.12   -18624.861     1396.604   -20021.465   -219.45234    33.387659    78.747938    22.604255    25.626158 
     200    236.57511   -312.75749    216009.12   -18670.437    1375.8168   -20046.254    -783.8467     34.11145    78.749113    22.602755    25.630809 
     400    230.49122   -402.04262    216009.12   -18653.433    1340.4356   -19993.869   -1137.1595    36.122085     78.74816    22.605144    25.648146 
     600    249.46465   -248.19489    216009.12   -18553.462    1450.7768   -20004.239   -484.30635    37.590455    78.750323    22.605366    25.668403 
     800    243.28052   -385.82045    216009.12   -18534.912    1414.8125   -19949.725   -1080.6846    39.310186    78.749855    22.604781    25.667714 
    1000    233.21857   -441.97778    216009.12   -18635.623    1356.2967   -19991.919   -1279.2766    40.990811    78.750881    22.601945     25.64899 
    1200    236.75092    -319.1719    216009.12   -18592.458    1376.8393   -19969.297   -735.01205    42.442355    78.750246    22.602473    25.656581 
    1400    236.39161   -96.899434    216009.12   -18582.772    1374.7497   -19957.522    168.64972    44.246193    78.749104    22.601352    25.675009 
    1600    245.79193     -280.067    216009.12   -18587.927    1429.4178   -20017.345   -649.46935    46.968921    78.750282    22.602812    25.685926 
    1800    241.09598   -135.43625    216009.12   -18544.518    1402.1082   -19946.626   -17.488108     48.78333     78.75265    22.602498    25.690746 
    2000    246.88208   -134.79775    216009.12   -18490.702    1435.7577    -19926.46    7.5501698    51.062621    78.752713    22.601946    25.708494 
    2200    237.67925   -153.37252    216009.12   -18578.425     1382.238   -19960.663   -96.801246    52.499072    78.753336     22.60233    25.715792 
    2400    241.53209   -326.56539    216009.12   -18542.402    1404.6445   -19947.047   -797.58176    54.716665    78.754059    22.601919    25.732496 
    2600    234.80415   -327.63437    216009.12   -18571.273    1365.5177   -19936.791   -793.37576    56.637067    78.752937    22.601059    25.731277 
    2800    242.36116   -134.94903    216009.12   -18496.277     1409.466   -19905.743    36.172008    58.138672    78.753784    22.598827    25.738856 
    3000    246.01222   -235.66461    216009.12   -18515.961    1430.6989   -19946.659   -436.83106    59.072455    78.751882    22.600075    25.717923 
    3200    243.49878   -301.89716    216009.12   -18581.454    1416.0819   -19997.536   -657.24285    59.883727    78.751533    22.601568    25.690637 
    3400    240.48398   -171.58062    216009.12   -18605.054    1398.5491   -20003.603   -146.31364    61.263497    78.750715    22.604413    25.670919 
    3600    240.60029   -451.29867    216009.12   -18589.496    1399.2255   -19988.721   -1355.5027    63.563693    78.748615    22.605271    25.658304 
    3800    242.06712   -257.41791    216009.12   -18557.364     1407.756    -19965.12   -485.93069    64.655279    78.749327    22.604431    25.666615 
    4000    229.36944   -383.42443    216009.12   -18609.449    1333.9118   -19943.361   -1025.6002    67.063549    78.752221    22.606166     25.69577 
    4200       235.17   -319.05606    216009.12   -18561.033    1367.6454   -19928.678   -776.26708     68.27979    78.754694    22.607386    25.666536 
    4400    239.16692   -240.01509    216009.12   -18550.416    1390.8897   -19941.306   -387.00785    70.826041    78.754429    22.606337    25.661115 
    4600    237.53532   -236.51105    216009.12   -18646.284     1381.401   -20027.685   -392.09891    72.657611    78.756338    22.605579    25.666407 
    4800    243.28745   -255.73029    216009.12    -18529.12    1414.8529   -19943.973   -529.46611    73.678294    78.756923    22.606926    25.673906 
    5000    238.63559   -298.51397    216009.12   -18544.053    1387.7997   -19931.853   -686.97044    75.319139    78.759249    22.608406    25.671636 
    5200    231.81395   -475.09314    216009.12   -18599.665     1348.128   -19947.793   -1452.4035    76.779377    78.759455    22.609972    25.657648 
    5400    237.30125   -241.61513    216009.12   -18631.294    1380.0398   -20011.334   -472.29984    77.782331    78.759781    22.611565    25.664709 
    5600    231.14808   -365.72117    216009.12   -18629.318    1344.2556   -19973.574   -1021.4872    80.056889    78.761949    22.612768    25.673799 
    5800    238.22859   -115.21019    216009.12   -18567.741    1385.4327   -19953.173    83.713312    81.003175    78.765217    22.613504     25.65593 
    6000    244.89476   -380.26959    216009.12   -18606.073    1424.2003   -20030.274   -1039.6591    83.164693    78.766738    22.614523    25.640975 
    6200    238.30032   -357.67624    216009.12   -18616.285    1385.8499   -20002.135   -954.43927    84.713739    78.766074    22.615346    25.654281 
    6400    238.52601   -375.73026    216009.12   -18583.373    1387.1624   -19970.536   -1034.9006    85.469347    78.765741    22.614681    25.652052 
    6600    240.12784   -363.64182    216009.12   -18614.774     1396.478   -20011.252   -969.73287    87.954227    78.764189    22.616123    25.668076 
    6800      241.344   -282.72279    216009.12   -18609.589    1403.5506    -20013.14   -597.19224    88.804097    78.764804    22.615725    25.664367 
    7000    242.19426   -356.05491    216009.12   -18571.287    1408.4954   -19979.782   -953.27307    90.711932    78.764793    22.616263    25.665878 
    7200    232.50773   -271.72035    216009.12   -18653.677    1352.1627    -20005.84   -565.75988    91.319316    78.765646    22.616837     25.64402 
    7400     237.8153   -475.26674    216009.12   -18587.575    1383.0292   -19970.605   -1462.6186    94.653222    78.762949    22.614895    25.626335 
    7600    245.83744   -205.77983    216009.12   -18507.661    1429.6825   -19937.344   -311.09198    96.408661    78.762429    22.614341    25.608201 
    7800    235.16955   -249.29665    216009.12   -18622.092    1367.6427   -19989.735   -469.50028    99.947343       78.761    22.613341    25.600299 
    8000    245.69308   -460.58709    216009.12   -18512.225    1428.8429   -19941.068   -1391.1013    103.37734    78.760812    22.613548     25.60135 
    8200    240.96689   -387.37363    216009.12   -18547.781    1401.3575   -19949.138   -1072.6376    104.03921    78.762001    22.612351    25.599075 
    8400    244.50627   -353.47277    216009.12   -18503.162     1421.941   -19925.103   -919.65844    105.62537    78.762544    22.611438    25.601433 
    8600    237.51791   -284.94729    216009.12   -18546.791    1381.2998    -19928.09   -655.30585    106.97099     78.76318    22.613108    25.611113 
    8800    234.23303   -307.37089    216009.12   -18573.726    1362.1963   -19935.923   -724.54312    108.61369    78.761527     22.61345    25.582001 
    9000    235.23172   -162.97652    216009.12    -18548.37    1368.0043   -19916.374   -116.05511    111.00705    78.760286    22.612775    25.579335 
    9200    247.97836   -409.35849    216009.12   -18540.418    1442.1332   -19982.551   -1185.3896    114.52941    78.760144    22.610689    25.610075 
    9400    235.61967   -303.48914    216009.12    -18600.56    1370.2604   -19970.821   -685.18114    115.55151    78.761335    22.609685    25.609862 
    9600    236.12291   -325.15007    216009.12   -18641.151    1373.1871   -20014.338   -843.01736    116.32076    78.762124    22.609274    25.594028 
    9800    242.26756    -364.9558    216009.12   -18531.006    1408.9216   -19939.928   -1026.4054    116.23082    78.761829    22.607645    25.603489 
   10000    237.96782   -294.65015    216009.12   -18577.578    1383.9162   -19961.494   -668.66989    117.51762    78.759199    22.607987    25.592362 
   10200    250.95018   -251.87701    216009.12   -18483.097     1459.416   -19942.513   -519.32213    117.57519    78.760194    22.608261    25.603813 
   10400    241.38257    -274.4348    216009.12   -18521.271    1403.7749   -19925.046   -610.07718     119.1747    78.759618    22.607324    25.563276 
   10600    237.90182   -484.91553    216009.12   -18614.697    1383.5324   -19998.229   -1534.0464    120.22343    78.757927    22.609138    25.561169 
   10800     231.3578   -410.28824    216009.12   -18614.496    1345.4753   -19959.971   -1181.5541     121.5552    78.755751     22.60884      25.5421 
   11000    238.63754   -250.70088    216009.12   -18612.592     1387.811   -20000.403   -476.67857    122.82216    78.754565    22.608926    25.552322 
   11200    234.32924   -399.90016    216009.12     -18588.5    1362.7559   -19951.256   -1093.2882    125.34671    78.756837     22.60821    25.549812 
   11400    237.73075   -306.51641    216009.12   -18570.481    1382.5375   -19953.019   -694.04946    125.73035    78.756864    22.609872    25.548639 
   11600    243.26663   -204.07318    216009.12   -18498.567    1414.7318   -19913.298   -327.43351     127.4903     78.75606     22.61037    25.544369 
   11800    248.66999   -286.37273    216009.12   -18523.716    1446.1553   -19969.872   -651.57631    129.80183    78.757345    22.609161    25.551866 
   12000    241.20594     -165.251    216009.12   -18513.072    1402.7477    -19915.82   -119.32689    131.65316    78.755375    22.607415    25.535896 
   12200    239.79938    -294.0302    216009.12   -18537.387    1394.5678   -19931.955   -686.95802    131.31509     78.75363    22.607928     25.51759 
   12400    242.03476   -279.34614    216009.12   -18552.632    1407.5678   -19960.199     -615.064    131.85832    78.753772    22.607576    25.506429 
   12600    246.56617   -406.46724    216009.12   -18497.825    1433.9205   -19931.746   -1154.5492    133.84689    78.755281    22.611206    25.507543 
   12800    243.41263   -325.53886    216009.12   -18558.807    1415.5809   -19974.388   -851.69377    133.63212    78.755645    22.609925    25.500154 
   13000    242.47457   -183.65921    216009.12   -18620.351    1410.1255   -20030.477   -195.39794     134.1092    78.753972     22.60942     25.51805 
   13200    234.97215   -275.86163    216009.12   -18658.999    1366.4947   -20025.494   -615.75688    134.95548    78.755657    22.608131     25.51344 
   13400    230.14594    -228.9737    216009.12   -18707.044    1338.4276   -20045.471   -440.57135    137.09995    78.757324    22.609203    25.478869 
   13600    237.98479   -267.36378    216009.12   -18682.798    1384.0149   -20066.813    -519.8915    138.86299    78.758126    22.610078    25.485996 
   13800    242.38169   -244.92618    216009.12   -18623.007    1409.5853   -20032.592   -505.09358     138.9924    78.757822     22.61124    25.487129 
   14000    241.82584   -232.35387    216009.12   -18574.574    1406.3528   -19980.927   -429.45589     138.2907    78.758983    22.611945    25.467066 
   14200    241.15168   -352.22001    216009.12   -18624.916    1402.4322   -20027.348   -911.22548     138.8439    78.756892    22.613744    25.466103 
   14400    240.58945   -330.85161    216009.12   -18674.345    1399.1625   -20073.508   -815.75102    138.31755    78.755519    22.612631    25.460418 
   14600    235.29446   -285.23282    216009.12   -18644.587    1368.3691   -20012.956   -650.34427    138.61317    78.753834    22.612756    25.461719 
   14800    238.50472   -306.37422    216009.12   -18604.281    1387.0386   -19991.319   -743.86493    139.17238    78.755314    22.614001    25.453437 
   15000    244.57827   -421.33096    216009.12   -18612.346    1422.3597   -20034.706   -1244.1221    139.67494    78.753593    22.613695    25.464052 
   15200    235.28499   -317.03742    216009.12   -18572.657    1368.3141   -19940.971   -805.59775    139.09561    78.752041    22.614063    25.472158 
   15400    242.02838   -213.73984    216009.12    -18626.53    1407.5307   -20034.061    -346.9364    140.41533    78.752049    22.615522    25.478433 
   15600    249.72839   -100.77326    216009.12   -18498.147    1452.3105   -19950.457    128.90679    141.74001    78.750002    22.617686    25.489111 
   15800      244.739   -313.88789    216009.12    -18579.66    1423.2945   -20002.954   -767.59897    143.81656    78.748221     22.61784    25.483047 
   16000    238.68824   -392.25149    216009.12   -18620.721    1388.1059   -20008.827   -1115.6364    143.16006    78.744666    22.616327    25.484919 
   16200    238.88543   -347.83036    216009.12   -18587.853    1389.2527   -19977.106   -926.76239    144.80993    78.744103     22.61584    25.477066 
   16400    236.30259   -279.99553    216009.12   -18643.942     1374.232   -20018.174   -601.17061    145.46712    78.742852     22.61376    25.474819 
   16600    242.99627   -270.34365    216009.12   -18549.856    1413.1595   -19963.016   -602.73046    147.04376     78.74144    22.612335    25.462567 
   16800    241.92077   -288.82314    216009.12   -18588.793    1406.9048   -19995.698   -661.19139    150.03919     78.74043    22.613073    25.475394 
   17000    241.94717   -263.81731    216009.12    -18642.28    1407.0584   -20049.338   -543.20254    150.78155    78.739157    22.611487     25.47327 
   17200     229.0381   -324.01816    216009.12    -18631.35    1331.9849   -19963.335      -806.21     151.4396    78.737741    22.615028    25.481511 
   17400    230.95522   -530.97345    216009.12   -18704.747    1343.1341   -20047.882   -1675.1402    152.73973    78.736917    22.616905    25.492436 
   17600    236.81878   -366.22827    216009.12   -18665.839    1377.2339   -20043.073   -977.03052    152.92695      78.7356    22.616918    25.507089 
   17800    243.42537   -248.61818    216009.12   -18671.274    1415.6549   -20086.929    -447.6585    153.84654    78.736486    22.617227    25.511081 
   18000      232.682   -390.16133    216009.12   -18611.295    1353.1763   -19964.472   -1144.3495    155.42992    78.737806    22.619543    25.492607 
   18200    241.53713   -174.44855    216009.12   -18607.419    1404.6738   -20012.092   -182.60783    156.22894    78.738129    22.618793    25.491112 
   18400    237.21756   -452.21514    216009.12   -18609.264     1379.553   -19988.817   -1339.4016    158.23706    78.738104    22.617928    25.480484 
   18600    242.05591     -471.815    216009.12   -18602.873    1407.6907   -20010.564   -1403.7022    161.04419    78.737142     22.61879    25.473358 
   18800     242.9884   -449.09982    216009.12   -18665.835    1413.1137   -20078.949   -1333.1599    162.98942    78.736839    22.618063    25.450137 
   19000    242.11439    -279.4321    216009.12   -18615.215    1408.0309   -20023.246   -595.73813    164.33197    78.737643    22.617772    25.450491 
   19200    239.94186   -308.04049    216009.12   -18667.232    1395.3964   -20062.628   -745.97762    164.12964    78.735582    22.619342    25.441912 
   19400    241.21673   -400.11343    216009.12   -18623.502    1402.8104   -20026.312   -1102.5975    166.27784    78.734365    22.618454    25.448311 
   19600    242.31441   -171.63734    216009.12   -18597.894    1409.1941   -20007.088    -137.6385    166.82925    78.734465    22.615523    25.465539 
   19800    243.35975   -463.46877    216009.12   -18588.295    1415.2734   -20003.568   -1366.2334    167.73852      78.7385    22.613507    25.498552 
   20000    237.39304   -306.21738    216009.12   -18587.349    1380.5736   -19967.923    -755.9588    166.62411    78.738474    22.615417    25.513346 
   20200    234.69225   -473.62899    216009.12   -18666.027    1364.8669   -20030.894   -1482.9187     168.6593    78.740867    22.615127    25.518491 
   20400    249.12601   -414.19989    216009.12   -18550.872    1448.8074   -19999.679    -1168.453    171.14474    78.739157    22.615314    25.512063 
   20600    234.12734   -254.90311    216009.12   -18649.715    1361.5817   -20011.297   -513.71453    171.05889     78.73633    22.615746    25.493647 
   20800    242.34649   -430.56852    216009.12   -18570.993    1409.3807   -19980.373   -1242.1973    170.98347    78.734972    22.613566    25.480357 
   21000    239.37666   -243.30704    216009.12   -18587.788    1392.1094   -19979.897   -468.24381    174.18215    78.734871    22.613263    25.461937 
   21200     241.3535   -383.62702    216009.12   -18522.581    1403.6059   -19926.187   -1061.3741    177.02204    78.734829    22.611534     25.46991 
   21400    240.30216   -254.36359    216009.12   -18553.899    1397.4918   -19951.391    -502.6395    178.77558     78.73545    22.612985      25.4516 
   21600    243.48363   -243.58125    216009.12   -18452.559    1415.9938   -19868.552   -457.71025     180.8062    78.734601    22.612704    25.484108 
   21800    239.38384   -274.46323    216009.12   -18590.066    1392.1512   -19982.217   -598.97835     182.3945    78.734289    22.613697    25.490492 
   22000    231.24856   -281.73954    216009.12    -18629.69      1344.84    -19974.53   -637.19539    185.02549     78.73397    22.613427    25.522386 
   22200    234.38943    -207.8641    216009.12   -18641.166    1363.1059   -20004.272   -276.54869     187.2566    78.731263    22.612182    25.560419 
   22400    242.39679    -210.0362    216009.12   -18527.218    1409.6732   -19936.891   -325.76238    190.43742    78.733213    22.611748    25.578119 
   22600    244.35296   -334.72486    216009.12   -18527.072    1421.0494   -19948.121   -842.19443    192.08078    78.733204    22.614326    25.578607 
   22800    245.36627   -424.68364    216009.12   -18523.983    1426.9424   -19950.925   -1205.6703    193.55779    78.734275    22.616684    25.576621 
   23000    237.70623   -106.11844    216009.12   -18602.577    1382.3949   -19984.972    69.449066    194.38991    78.734713    22.618339    25.588213 
   23200    242.61724   -237.98756    216009.12   -18526.112    1410.9552   -19937.067   -450.16551    193.36696     78.73785    22.618421    25.586534 
   23400    245.46059   -424.77836    216009.12   -18544.836    1427.4909   -19972.326    -1181.881    195.04472    78.738598    22.617632    25.599807 
   23600     244.2007   -309.48897    216009.12   -18484.204    1420.1639   -19904.368   -725.80791    194.71636    78.738597    22.617064    25.621361 
   23800    243.56796   -275.25442    216009.12    -18477.85    1416.4842   -19894.334   -625.90262    197.73012    78.737824     22.61809    25.622623 
   24000    240.86716   -379.27055    216009.12   -18521.603    1400.7775    -19922.38   -1033.9081     197.9159    78.736252    22.618329    25.624471 
   24200    240.33204   -339.24264    216009.12   -18555.253    1397.6655   -19952.918   -865.21594    198.79777    78.736502    22.620032    25.636525 
   24400    240.50771   -161.75366    216009.12    -18601.88    1398.6871   -20000.568   -73.066437    199.65905    78.737707    22.619487    25.652002 
   24600      233.244   -161.97134    216009.12   -18667.224    1356.4446   -20023.668   -71.890573    199.41859    78.736704    22.618131    25.627455 
   24800    237.84018   -433.32368    216009.12    -18624.95    1383.1739   -20008.124   -1223.1284    201.42212    78.738219      22.6196    25.639758 
   25000    231.88377    -199.2401    216009.12   -18594.478    1348.5341   -19943.012   -255.47345     201.4617    78.739252    22.616859    25.640199 
   25200    232.56082   -403.26468    216009.12   -18686.244    1352.4715   -20038.715   -1134.5982    204.73089    78.739135    22.616446    25.645042 
   25400    239.07905   -285.48072    216009.12   -18632.801    1390.3786   -20023.179   -612.50759    205.27896    78.735328    22.616125    25.672932 
   25600    247.37002   -249.33552    216009.12   -18468.842    1438.5953   -19907.438   -506.91208    207.25893     78.73416    22.614393    25.680085 
   25800    239.75175   -258.00501    216009.12   -18539.236    1394.2908   -19933.527   -527.30524    208.08924       78.733    22.614001    25.659584 
   26000    243.73032   -248.88427    216009.12   -18576.399    1417.4284   -19993.827   -468.23201    209.36667    78.734945    22.613052    25.664258 
   26200    241.76583   -353.49474    216009.12   -18585.042    1406.0038   -19991.045   -925.55384    210.38949    78.735621    22.610416    25.676387 
   26400    234.50712   -313.95115    216009.12   -18611.329    1363.7903    -19975.12   -738.82871    209.82652    78.734128    22.608068    25.650401 
   26600    243.21903   -436.99023    216009.12    -18516.52     1414.455   -19930.975    -1261.628    211.75685    78.732381    22.607592    25.653033 
   26800    241.16031   -305.32969    216009.12   -18540.648    1402.4823    -19943.13   -682.62907    212.12903    78.732023    22.606565    25.656692 
   27000    241.51899   -270.73898    216009.12   -18481.135    1404.5683   -19885.704   -598.65504    213.76122    78.732003    22.605514    25.652624 
   27200    238.79993   -376.83918    216009.12   -18544.797    1388.7554   -19933.553   -1064.0033    214.35401    78.731667    22.604504    25.622685 
   27400    244.37889   -217.10955    216009.12   -18493.309    1421.2002    -19914.51   -383.48614    216.04861    78.730994    22.602233    25.603577 
   27600    234.09997   -281.10296    216009.12   -18636.976    1361.4225   -19998.398   -605.20739    216.63332     78.73083    22.600955    25.612034 
   27800    239.89829   -333.03089    216009.12   -18519.132     1395.143   -19914.275   -807.57628    219.71753    78.731274    22.602332    25.590021 
   28000    233.35683   -390.34058    216009.12   -18606.089    1357.1007    -19963.19   -1070.2658     220.2728    78.730989    22.602323    25.592918 
   28200    238.43309   -153.27012    216009.12   -18596.465     1386.622   -19983.087   -99.705853    220.56334    78.731127    22.600348    25.576584 
   28400    234.80372   -355.52839    216009.12   -18587.672    1365.5152   -19953.188   -948.85746    221.50343     78.72877    22.600848    25.588575 
   28600    236.88894   -439.52038    216009.12    -18563.41     1377.642   -19941.052   -1304.5955    224.44528    78.727875    22.602041    25.584233 
   28800     233.8862   -298.61117    216009.12   -18553.094    1360.1793   -19913.273   -660.68137    225.55383    78.728147    22.602805    25.577105 
   29000    242.76229   -265.05947    216009.12   -18555.366    1411.7988   -19967.165   -578.44411    226.78678    78.728283    22.603977    25.578982 
   29200     247.4717   -324.16263    216009.12   -18505.854    1439.1866   -19945.041   -780.55724    228.49501    78.728741    22.604051    25.575705 
   29400    243.17799   -361.19706    216009.12   -18530.874    1414.2163    -19945.09   -961.75323    228.45904    78.727335    22.600845    25.597089 
   29600     239.3743   -254.83797    216009.12   -18535.192    1392.0957   -19927.288   -496.77149    230.13759    78.726788    22.599409    25.568589 
   29800    232.90217   -323.59001    216009.12   -18603.206    1354.4566   -19957.662   -844.67797    231.19232    78.725304    22.601647     25.57048 
   30000    234.07327   -422.66034    216009.12   -18658.996    1361.2672   -20020.263    -1228.893    233.54234    78.726173    22.602647    25.577139 
   30200    243.68443   -214.15219    216009.12   -18620.201    1417.1615   -20037.363   -346.49585    234.92478    78.725373    22.602168    25.571175 
   30400    233.77408   -273.01676    216009.12   -18619.055    1359.5273   -19978.582   -580.31224    235.16317    78.725924    22.601323    25.560591 
   30600    238.93888   -240.99923    216009.12   -18654.037    1389.5635     -20043.6    -438.9966    236.75637    78.723659    22.599743    25.566084 
   30800    237.58153   -435.84893    216009.12   -18569.945    1381.6697   -19951.615      -1251.5    238.76562    78.720106    22.597442    25.561276 
   31000    240.64979   -527.50916    216009.12   -18570.012    1399.5134   -19969.525   -1687.0354    241.42536    78.720133    22.599096    25.556948 
   31200    238.64956   -354.01114    216009.12   -18574.171    1387.8809   -19962.052   -950.37714    239.98106    78.719814    22.599395    25.585525 
   31400    245.80284   -370.67055    216009.12   -18545.711    1429.4813   -19975.193   -989.59759    241.50379    78.720826    22.599666    25.589023 
   31600    241.41021   -304.29434    216009.12   -18590.568    1403.9357   -19994.503   -741.34543    244.03279      78.7206    22.599572    25.562326 
   31800    241.61153   -200.83357    216009.12   -18534.415    1405.1065   -19939.521   -293.74429    246.13044    78.722143    22.597097     25.54862 
   32000    240.58554    -315.8885    216009.12   -18616.524    1399.1397   -20015.664   -779.61618    247.40329    78.724392    22.595618    25.541894 
   32200     233.2784   -317.03496    216009.12   -18606.498    1356.6446   -19963.143   -772.40672    247.80916    78.724924     22.59564    25.539701 
   32400     238.9451   -242.15142    216009.12    -18589.39    1389.5997    -19978.99   -487.73254     247.0742    78.723871    22.597682    25.547965 
   32600    244.92766   -392.42998    216009.12   -18535.442    1424.3916   -19959.833   -1078.1855    247.60945    78.722783    22.597165    25.547892 
   32800    238.62896   -265.80497    216009.12   -18546.779    1387.7611   -19934.541   -541.78079    247.87159    78.722896    22.596252    25.549435 
   33000    242.04927   -300.14273    216009.12   -18520.341    1407.6521   -19927.993    -720.7332    248.11849    78.721621    22.594503    25.531042 
   33200    235.56359    -293.6828    216009.12   -18547.097    1369.9343   -19917.031   -651.65641    250.04655    78.724153    22.593532     25.50938 
   33400    237.56841   -237.66677    216009.12    -18586.56    1381.5934   -19968.154   -469.43049    251.57584    78.723542    22.594787    25.505909 
   33600     238.6738   -336.45208    216009.12   -18604.945    1388.0219   -19992.967   -888.58776    253.40252    78.723963    22.593046    25.491508 
   33800    242.67137   -207.07185    216009.12   -18448.754      1411.27   -19860.024   -275.43191    253.81988    78.723736    22.595671    25.469044 
   34000    235.81717   -498.10743    216009.12   -18568.485     1371.409   -19939.893   -1519.8143    255.53243    78.723933      22.5977    25.496511 
   34200    241.28863   -276.78332    216009.12   -18560.269    1403.2286   -19963.498   -628.96342    257.82742    78.724106    22.598663    25.501417 
   34400    235.44546    -533.3468    216009.12    -18615.75    1369.2473   -19984.997   -1722.2937    257.93323    78.723901    22.598898    25.490249 
   34600    237.35302   -306.61438    216009.12   -18481.117    1380.3408   -19861.458   -770.39792    259.12046    78.726176    22.599673    25.497487 
   34800    237.46349   -354.49584    216009.12   -18560.047    1380.9833    -19941.03   -928.40638    261.85047    78.726699    22.598565     25.50471 
   35000    231.97443   -260.94742    216009.12   -18563.815    1349.0613   -19912.877   -574.79866     263.9853    78.725254    22.598225    25.523871 
   35200    245.37553    -498.3072    216009.12   -18527.902    1426.9962   -19954.898   -1548.5625    264.61768    78.727221    22.598225    25.529529 
   35400    236.40494   -276.89372    216009.12   -18554.426    1374.8272   -19929.253   -590.46477    268.42173    78.727475    22.596164    25.549168 
   35600      240.414   -259.74173    216009.12   -18566.139    1398.1421   -19964.281   -521.74824    269.50974    78.726527    22.594982    25.546934 
   35800    247.30026   -203.41167    216009.12   -18501.513    1438.1896   -19939.703   -286.65216    271.60603    78.724917    22.595354    25.531155 
   36000    242.86589   -277.05361    216009.12   -18621.615    1412.4012   -20034.016   -580.05219    272.41842     78.72588    22.595246    25.531793 
   36200    237.79862   -348.96178    216009.12   -18601.001    1382.9322   -19983.933   -885.92935    273.83196    78.726132    22.594789    25.529055 
   36400    238.68765   -296.95409    216009.12   -18566.895    1388.1025   -19954.997   -694.19487    276.46855    78.725837    22.596074    25.545963 
   36600    241.71345   -321.04925    216009.12   -18535.714    1405.6991   -19941.413   -751.62527    278.31366    78.725197    22.596143    25.535551 
   36800    236.68916   -372.72692    216009.12   -18627.953    1376.4801   -20004.433   -965.41552    282.12869    78.726314    22.597704    25.549917 
   37000    243.34989   -379.79098    216009.12   -18584.449     1415.216   -19999.665   -1019.6518    284.47028    78.727815    22.598845    25.555228 
   37200    241.93001    -116.4944    216009.12   -18597.702    1406.9586   -20004.661    100.17174    284.97823    78.729099     22.59776    25.553523 
   37400    238.31237   -315.78151    216009.12   -18587.961      1385.92   -19973.881   -770.84262    284.00668    78.728264    22.594621    25.558588 
   37600    238.03824   -200.82091    216009.12    -18607.41    1384.3258   -19991.736   -269.23451     285.4097    78.727645    22.594972    25.562392 
   37800    235.77808   -344.26671    216009.12   -18641.167    1371.1817   -20012.348   -916.54354    286.35135    78.727899     22.59653    25.550838 
   38000    240.27023   -382.81467    216009.12   -18572.954     1397.306    -19970.26   -1046.7821    286.31642    78.728975    22.598444    25.563703 
   38200    239.36716   -259.37686    216009.12   -18540.391    1392.0542   -19932.445   -523.67816    288.27945    78.727261    22.602677    25.558764 
   38400    239.61017   -362.58682    216009.12   -18518.939    1393.4674   -19912.406   -980.06363    288.63533    78.727417    22.602237     25.54722 
   38600    242.31122   -415.40963    216009.12   -18541.177    1409.1755   -19950.352   -1175.6595    289.12175     78.72818    22.602649    25.528763 
   38800    238.30218   -319.81947    216009.12   -18563.377    1385.8607   -19949.238   -805.94314    291.19992    78.726278    22.603789    25.547045 
   39000     247.0716   -430.05197    216009.12   -18518.337    1436.8598   -19955.196   -1253.8172     293.2868    78.725122     22.60174    25.558613 
   39200    235.84881   -28.191148    216009.12   -18605.703     1371.593   -19977.296    497.77994     293.4633    78.725402    22.601944    25.550857 
   39400    239.11733   -328.39152    216009.12   -18566.843    1390.6013   -19957.444   -780.99116    295.22366    78.727111    22.602975     25.54157 
   39600    240.84833   -336.88231    216009.12   -18524.077     1400.668   -19924.745   -859.23588    296.88571    78.727696    22.597877    25.507978 
   39800    234.93681   -364.88665    216009.12    -18563.21    1366.2892   -19929.499   -1000.5331    297.68678    78.729256    22.597767    25.538207 
   40000    237.89685   -262.71183    216009.12   -18525.541    1383.5035   -19909.044   -531.77697    300.56745    78.728114    22.594524    25.526285 
   40200    243.52556   -258.89332    216009.12   -18540.457    1416.2376   -19956.694    -500.2175    303.30907    78.727026    22.595499    25.535194 
   40400     231.9088    -276.4235    216009.12   -18587.864    1348.6797   -19936.543   -614.31889     305.7006    78.726406    22.594596     25.54848 
   40600    241.23626   -313.58038    216009.12   -18506.865     1402.924   -19909.789   -745.21854    306.36878    78.724087    22.591493    25.550936 
   40800    236.69679   -376.48366    216009.12   -18617.735    1376.5245   -19994.259   -1032.1959    304.69208    78.722653    22.590827    25.523577 
   41000    244.25473   -565.16101    216009.12   -18546.611    1420.4782    -19967.09   -1822.8476    305.79626    78.722006    22.590454    25.502469 
   41200    252.63142   -314.18585    216009.12   -18506.728    1469.1933   -19975.921   -737.72359    306.15195    78.721822    22.589519    25.498491 
   41400    236.62631   -171.67801    216009.12   -18562.337    1376.1146   -19938.451   -121.70977    306.06027    78.719971    22.588554    25.488997 
   41600    239.86679   -308.94484    216009.12   -18533.134    1394.9598   -19928.094   -730.71306    309.34957    78.722685    22.590475    25.476101 
   41800    237.09612   -302.08771    216009.12   -18543.004    1378.8468   -19921.851   -727.00753    310.24368    78.723665    22.589474    25.513914 
   42000    240.74294   -215.72634    216009.12   -18552.631    1400.0551   -19952.686   -365.40504    309.80607    78.722603    22.591541    25.535811 
   42200    232.72786   -262.68821    216009.12   -18618.195    1353.4429   -19971.638    -553.5228    311.82297    78.725102    22.594346    25.549777 
   42400    233.25952   -216.55411    216009.12   -18584.283    1356.5348   -19940.817   -371.28659     313.6544     78.72747    22.597647    25.579808 
   42600    237.62803   -414.26161    216009.12   -18622.242    1381.9402   -20004.182   -1200.0412    313.47917    78.728103    22.600621    25.585166 
   42800    239.35463   -386.49023    216009.12   -18574.404    1391.9813   -19966.385   -1077.3951    313.33789    78.727944    22.602101    25.589565 
   43000    240.79869   -259.87276    216009.12   -18594.597    1400.3793   -19994.976   -540.75978    313.86778    78.726999    22.600073     25.57869 
   43200    242.24282   -290.71359    216009.12   -18569.089    1408.7778   -19977.866   -664.17815    315.67517    78.725683    22.600365    25.589223 
   43400    241.25365   -378.41952    216009.12   -18532.889    1403.0252   -19935.914     -1027.34    317.88602    78.728227    22.602518    25.578431 
   43600    237.16443   -114.14597    216009.12   -18582.733    1379.2441   -19961.977     94.73591    318.45437    78.725998    22.602131    25.550188 
   43800    240.50535   -305.94715    216009.12   -18646.049    1398.6734   -20044.723   -713.98409    321.72882    78.725252    22.603072    25.552213 
   44000    236.66443    -373.1958    216009.12    -18655.13    1376.3363   -20031.467   -994.35527    323.99747    78.723366    22.603029    25.554513 
   44200    235.30973   -422.49612    216009.12   -18626.723    1368.4579   -19995.181   -1235.8272    324.61557    78.721561    22.603205    25.539285 
   44400    232.49685   -430.90918    216009.12   -18619.033    1352.0995   -19971.132   -1260.1907    324.43805    78.722769     22.60414    25.536141 
   44600    229.26592   -254.20201    216009.12   -18625.012    1333.3098   -19958.322   -473.87586    323.29212    78.723265    22.604635    25.546292 
   44800    240.04381   -478.78911    216009.12   -18627.078    1395.9893   -20023.067   -1504.5658    323.84384    78.722789    22.603529    25.559231 
   45000    240.42676   -363.91166    216009.12   -18604.578    1398.2163   -20002.794   -957.76263    323.22629     78.72175    22.603975    25.554128 
   45200    241.62935   -281.18169    216009.12   -18566.788    1405.2101   -19971.998   -598.87773    322.60753    78.719578    22.605198    25.549785 
   45400    233.48223   -350.62227    216009.12   -18619.853      1357.83   -19977.683   -921.90869    324.27184    78.720955    22.605416    25.541777 
   45600    240.15797   -387.38808    216009.12   -18528.549    1396.6532   -19925.202   -1062.2642     326.6745    78.721352    22.603711    25.545185 
   45800    240.71096   -389.80098    216009.12   -18552.557    1399.8691   -19952.426   -1067.5559    328.69257    78.723571     22.60253    25.558882 
   46000     248.0125   -399.06019    216009.12   -18502.239    1442.3317    -19944.57   -1110.6007    330.66028    78.723281    22.602196    25.560322 
   46200    242.96989   -237.74882    216009.12   -18509.434    1413.0061    -19922.44   -414.54228    330.10839    78.720792    22.603431    25.575555 
   46400    235.69069   -541.89978    216009.12   -18600.133    1370.6734   -19970.807   -1699.0101    332.40144     78.72018    22.603071    25.609932 
   46600    240.61354   -479.97122    216009.12   -18587.567    1399.3026   -19986.869   -1477.5803    331.63338    78.718513    22.603292    25.628383 
   46800    242.12098   -193.66443    216009.12    -18561.97    1408.0692   -19970.039   -232.80192    330.44453    78.718457    22.601479    25.627481 
   47000    241.03337   -353.79898    216009.12   -18523.476    1401.7441    -19925.22   -966.52607    332.62968    78.718722    22.604115    25.604907 
   47200    235.26979   -271.90385    216009.12   -18619.237    1368.2257   -19987.463   -558.55435    333.63733    78.718551    22.606576    25.593601 
   47400    241.97148   -226.21528    216009.12   -18558.466    1407.1997   -19965.666   -381.42827    334.44284    78.719798    22.607339    25.597556 
   47600    237.31765   -297.66679    216009.12   -18593.722    1380.1351   -19973.857   -734.67845    336.13794    78.718831    22.605795    25.620607 
   47800    236.77987    -321.1022    216009.12   -18560.618    1377.0076   -19937.626    -802.3189    337.85409    78.719004    22.605908    25.574801 
   48000    239.20707   -247.15786    216009.12   -18564.141    1391.1232   -19955.265   -477.19441    339.48625    78.719634    22.603836    25.601024 
   48200     247.2499   -159.32813    216009.12   -18585.032    1437.8967   -20022.929     -123.969    339.55139    78.721049    22.601247    25.601554 
   48400    235.18971   -347.85539    216009.12   -18583.578      1367.76   -19951.338   -920.26939    341.38142     78.71915    22.598412     25.58179 
   48600    230.35838    -313.6144    216009.12   -18657.999     1339.663   -19997.662   -844.79498    342.58372    78.721404    22.598695    25.575155 
   48800    239.62802   -153.62156    216009.12   -18633.357    1393.5712   -20026.928   -72.275066    345.53655      78.7224    22.596535    25.582913 
   49000    239.12466   -259.26407    216009.12   -18591.623    1390.6439   -19982.267   -505.18706    346.45824     78.72119    22.594336    25.584393 
   49200    245.04761   -406.14874    216009.12   -18574.823    1425.0892   -19999.913   -1176.4404    347.50395    78.721907    22.593914    25.592926 
   49400    236.37165   -229.20983    216009.12   -18632.912    1374.6336   -20007.545   -401.68211    349.38759    78.721287    22.591913    25.547793 
   49600    239.03652   -201.42941    216009.12   -18628.622    1390.1313   -20018.754   -291.65678    350.73444    78.723303    22.591028    25.539628 
   49800    236.14326   -113.78629    216009.12   -18614.544    1373.3054   -19987.849    66.724623    349.81335    78.722139    22.588694     25.54669 
   50000    240.64252   -344.82888    216009.12   -18630.769    1399.4711   -20030.241   -841.47507    352.85079    78.723087    22.588196    25.576867 
   50200    239.67384   -415.70314    216009.12    -18590.79    1393.8377   -19984.628   -1202.9809    353.48223    78.722288    22.587155    25.586312 
   50400    243.62851   -170.42431    216009.12   -18610.324    1416.8363    -20027.16   -133.65602    353.69261    78.721688    22.588376    25.598968 
   50600    242.42209   -237.72522    216009.12   -18519.607    1409.8203   -19929.428   -430.94758    355.72337     78.71989    22.586301     25.60439 
   50800    232.26243   -336.93295    216009.12   -18666.508    1350.7362   -20017.245   -827.12081    357.51541    78.719407    22.586806    25.636026 
   51000    240.80526   -409.09079    216009.12   -18623.645    1400.4175   -20024.063   -1161.2538    358.62434    78.717801    22.585164    25.647867 
   51200    241.10683    -230.5467    216009.12   -18630.046    1402.1714   -20032.218   -421.01398    360.30476    78.717353    22.586774    25.657059 
   51400    238.08175   -272.78099    216009.12    -18604.68    1384.5788   -19989.259   -617.25595    360.53534    78.719151    22.588652    25.645227 
   51600    237.83576   -458.57966    216009.12   -18662.364    1383.1482   -20045.512   -1406.0843    360.90307    78.718577    22.590106    25.635263 
   51800    233.36667    -454.6084    216009.12    -18584.63    1357.1579   -19941.788   -1354.8346     361.4419    78.717383    22.592887    25.627311 
   52000    238.41302     -375.343    216009.12   -18635.161    1386.5053   -20021.666   -1025.1981    361.77097     78.71974    22.591477    25.615127 
   52200    238.84377   -337.11827    216009.12    -18639.02    1389.0104   -20028.031    -898.4327     363.6095    78.720993     22.59241    25.634275 
   52400    238.18337   -277.68258    216009.12   -18660.374    1385.1698   -20045.544   -616.21054    364.41699    78.720589    22.592244    25.652324 
   52600    241.26361   -371.85718    216009.12   -18610.101    1403.0831   -20013.185   -953.66356    366.81722     78.72117    22.592328    25.643433 
   52800     247.0707    -278.4279    216009.12   -18590.577    1436.8546   -20027.431   -631.86212    366.01178     78.71947    22.591927    25.643759 
   53000    248.82132   -245.99681    216009.12   -18556.785    1447.0354    -20003.82   -482.25316    366.97448    78.720417    22.589878    25.643757 
   53200    235.02595   -304.37991    216009.12   -18647.295    1366.8076   -20014.103   -756.24644    368.49453    78.721621    22.590793    25.650899 
   53400    240.85512    -331.2199    216009.12   -18593.995    1400.7075   -19994.703   -877.80961    368.89166    78.720243    22.590377    25.646105 
   53600    232.61786   -405.84431    216009.12   -18648.024    1352.8032   -20000.827   -1170.9618    369.47345    78.721278    22.589341    25.643975 
   53800    237.30858   -162.27279    216009.12    -18602.86    1380.0824   -19982.942   -137.03967    367.91178    78.721603    22.591984    25.631321 
   54000    243.94945   -413.93978    216009.12   -18563.216    1418.7028   -19981.919   -1231.2783    369.93039    78.721244    22.592592    25.629257 
   54200    236.98636   -274.33381    216009.12   -18525.544    1378.2085   -19903.753   -601.60415    371.56104    78.720366    22.592498    25.628558 
   54400    245.39999   -260.92236    216009.12   -18477.341    1427.1385    -19904.48   -520.27099    373.71967     78.72093    22.594613     25.65131 
   54600    243.82543   -248.13724    216009.12   -18514.243    1417.9815   -19932.225    -486.3969    373.85858     78.71882    22.596679    25.645904 
   54800    239.76594     -227.999    216009.12    -18491.22    1394.3733   -19885.594   -415.29055    374.52704    78.718597    22.598425     25.61622 
   55000    245.96728    -266.1322    216009.12   -18487.424    1430.4376   -19917.861   -499.40532     376.2702    78.717967    22.599628    25.612959 
   55200    241.69075   -199.63823    216009.12   -18620.917    1405.5671   -20026.484   -211.17355    376.86735    78.719128     22.59935    25.639183 
   55400    238.73731   -233.13727    216009.12   -18597.873    1388.3913   -19986.265   -469.61804    378.35774    78.718628    22.600118    25.647111 
   55600    241.25017   -254.73044    216009.12   -18615.393    1403.0049   -20018.398   -518.73439     380.0056    78.716133     22.60228    25.658893 
   55800    250.25734   -110.60163    216009.12   -18504.602    1455.3867   -19959.989    151.84966    381.41017    78.717333    22.603383    25.677311 
   56000     241.1321   -263.63303    216009.12   -18540.304    1402.3183   -19942.622   -538.80631    383.88213    78.717673     22.60328    25.709713 
   56200    239.89767   -491.94436    216009.12   -18529.232    1395.1394   -19924.371   -1507.3335    385.28798    78.718311    22.601709    25.706857 
   56400    231.24817   -273.81883    216009.12   -18623.695    1344.8377   -19968.533   -622.47023    385.38026    78.716971    22.602544    25.708729 
   56600    231.28255   -310.99481    216009.12    -18716.28    1345.0377   -20061.318    -748.5476    386.70086    78.716865    22.603354    25.689048 
   56800    236.85176   -167.72909    216009.12   -18619.794    1377.4257    -19997.22   -126.28469    387.87829    78.718369    22.604149    25.678698 
   57000    237.62783   -335.20406    216009.12   -18687.532     1381.939   -20069.471   -863.53331    388.89825    78.716986    22.604092    25.655154 
   57200    240.02597   -270.19645    216009.12   -18607.865    1395.8855   -20003.751    -550.9094    389.09091    78.716862    22.600712    25.631965 
   57400    232.87803   -272.45052    216009.12   -18631.603    1354.3163   -19985.919   -563.06824    390.02879    78.714284    22.599969    25.617007 
   57600    235.08236   -427.34523    216009.12   -18654.707    1367.1357   -20021.843   -1202.9241    391.63741    78.714302    22.601978    25.606864 
   57800    240.47966   -140.38707    216009.12   -18656.231     1398.524   -20054.755   -19.817218    392.14005    78.714489    22.600009    25.615379 
   58000    244.68474   -431.86093    216009.12   -18648.259    1422.9789   -20071.238   -1247.7351    391.62316    78.715187    22.599583    25.605127 
   58200    241.62018   -531.83775    216009.12    -18629.89    1405.1568   -20035.046   -1682.9301    393.55453     78.71425     22.60081    25.587029 
   58400    237.95044   -284.05539    216009.12   -18641.716    1383.8152   -20025.531   -645.92266    394.84214    78.715318    22.600134    25.582442 
   58600     235.0459   -418.82204    216009.12   -18665.209    1366.9236   -20032.133   -1232.7635    396.16057    78.717592    22.598939    25.580887 
   58800    237.09287   -364.93028    216009.12   -18624.995    1378.8279   -20003.823    -1010.924    397.67446    78.720179    22.600695    25.571949 
   59000    244.20755   -225.89544    216009.12   -18541.531    1420.2037   -19961.734   -365.50033     396.8561     78.72398     22.59775    25.585217 
   59200    243.78814   -332.24246    216009.12    -18588.23    1417.7646   -20005.994   -828.06819    398.93193    78.724169    22.594388    25.587924 
   59400     235.5688    -332.4094    216009.12   -18608.582    1369.9646   -19978.547   -828.94059    399.94557    78.723185    22.593991    25.585479 
   59600     232.2919   -353.65533    216009.12   -18672.855    1350.9076   -20023.763   -925.05292    401.42701    78.722831    22.590244    25.592921 
   59800    234.66666   -377.27939    216009.12   -18612.064    1364.7181   -19976.782   -1041.1046    403.44113    78.723364    22.591328    25.596172 
   60000    232.52592    -77.38241    216009.12   -18572.565    1352.2685   -19924.833    234.90137    403.77891    78.722043    22.588518    25.592239 
   60200    239.70591   -394.62203    216009.12   -18610.635    1394.0242    -20004.66   -1124.7238    403.72921    78.722911    22.586729    25.597994 
   60400    237.19069   -241.96273    216009.12   -18581.751    1379.3968   -19961.148   -441.26706    405.17931    78.725269    22.584812    25.613311 
   60600    241.80545   -262.24026    216009.12   -18526.417    1406.2342   -19932.652   -550.21654    406.53014    78.728238    22.584458    25.612537 
   60800    242.60776   -213.06424    216009.12   -18491.112    1410.9001   -19902.013   -347.88379    408.33138     78.73007    22.585249    25.627064 
   61000    237.51944   -203.01429    216009.12   -18567.409    1381.3087   -19948.718   -330.15559    409.13585     78.73263    22.584093    25.639989 
   61200    241.59693   -277.80916    216009.12   -18515.452    1405.0215   -19920.474   -596.56822    413.51247    78.736926    22.581645    25.624731 
   61400    243.69874   -113.88748    216009.12   -18549.127    1417.2447   -19966.372    72.098299    414.19875    78.740072    22.580636    25.631829 
   61600    240.17106   -359.38665    216009.12   -18572.002    1396.7293   -19968.731   -957.72284    418.71565    78.742665    22.582842    25.633888 
   61800    246.24099   -430.40106    216009.12   -18622.947    1432.0294   -20054.976   -1260.8516    420.27929    78.741096    22.583659    25.637582 
   62000    244.17418   -303.77827    216009.12   -18592.057    1420.0097   -20012.066   -718.03674    421.17257    78.741389    22.583544    25.605984 
   62200    244.50362   -147.82357    216009.12   -18574.169    1421.9256   -19996.095   -64.986516    423.55976     78.74191    22.582807    25.615588 
   62400    247.39748    -255.2413    216009.12   -18594.321     1438.755   -20033.076   -540.85723    424.50147    78.741182    22.584409     25.62463 
   62600    236.13685   -506.36898    216009.12     -18603.8    1373.2681   -19977.068   -1577.1644    425.14884    78.740811     22.58506    25.624156 
   62800    231.62099   -347.45408    216009.12    -18672.26    1347.0058   -20019.266   -958.82624    427.47446     78.74039    22.585692    25.620162 
   63000    241.28637   -295.85428    216009.12   -18593.785    1403.2155   -19997.001   -664.92261    429.74735    78.740511    22.589053    25.626321 
   63200    243.77415   -397.50403    216009.12   -18628.296    1417.6833   -20045.979   -1114.5459    430.68877    78.739881     22.59084    25.615976 
   63400    238.52724   -222.94574    216009.12   -18675.403    1387.1696   -20062.572    -401.8052    432.24953    78.740917     22.59006    25.614576 
   63600    236.96103   -107.94055    216009.12   -18674.478    1378.0612   -20052.539    93.790205    432.80478    78.741108    22.591494      25.6061 
   63800    240.46333   -314.83151    216009.12   -18706.222     1398.429   -20104.651   -724.45512    433.65789    78.740889    22.591644    25.601371 
   64000    243.12584   -318.39046    216009.12   -18572.804     1413.913   -19986.717   -726.55957    434.28527    78.740493    22.592163    25.605119 
   64200    240.05216   -228.30166    216009.12   -18576.451    1396.0378   -19972.489   -396.46872    434.27334    78.737989      22.5924    25.615445 
   64400    239.38959   -296.70389    216009.12   -18619.864    1392.1846   -20012.048   -697.25439    435.24997    78.738947    22.594686    25.627692 
   64600    239.69675   -193.61948    216009.12   -18650.961    1393.9709   -20044.932   -262.41455    436.65277    78.736243    22.596944    25.634321 
   64800    242.21214   -157.73674    216009.12   -18621.566    1408.5993   -20030.166   -129.74581    437.85212    78.734595    22.598051    25.619707 
   65000     245.7339   -264.17596    216009.12   -18545.368    1429.0804   -19974.449   -506.48253    437.98004    78.731796    22.596592    25.625334 
   65200    240.20028   -260.48884    216009.12   -18582.218    1396.8992   -19979.117   -548.74092    437.58817    78.729937    22.596972    25.613828 
   65400    240.29984   -336.06494    216009.12   -18585.609    1397.4782   -19983.088   -842.80982    438.92268    78.731324    22.595789    25.607578 
   65600    241.38461   -247.29044    216009.12   -18546.143    1403.7868   -19949.929   -429.96593     439.6639    78.731177    22.595513    25.618752 
   65800    244.84493   -52.021365    216009.12   -18559.729    1423.9105   -19983.639    390.19379    440.12487    78.730545    22.593201    25.640317 
   66000    230.70271   -401.21725    216009.12   -18600.125    1341.6655    -19941.79   -1122.7396    442.56294    78.731135      22.5913    25.647387 
   66200    233.67953   -274.90146    216009.12   -18666.014    1358.9774   -20024.991   -585.63975    443.06466    78.732863    22.589595    25.656754 
   66400    234.92154   -412.49463    216009.12   -18635.643    1366.2004   -20001.844   -1195.9928    444.40404    78.733592     22.59108    25.645086 
   66600     247.5677   -244.21643    216009.12   -18671.438    1439.7449   -20111.183    -476.4065    442.51337    78.733554    22.588086    25.653316 
   66800    237.96393   -367.54447    216009.12   -18664.513    1383.8936   -20048.406     -972.494    445.36354    78.731921    22.585831    25.647066 
   67000    228.59775   -209.87654    216009.12   -18709.682     1329.424   -20039.106   -303.76918    445.61205    78.731471    22.585368    25.655245 
   67200    233.03353   -433.42161    216009.12   -18597.284    1355.2206   -19952.505   -1222.4783    447.29617    78.731262    22.582651    25.640906 
   67400    239.60478   -257.55581    216009.12   -18538.997    1393.4361   -19932.433   -481.66188    447.07277    78.730361    22.581218     25.62781 
   67600    243.67091   -363.96782    216009.12   -18504.821    1417.0829   -19921.904   -973.07255    446.80846     78.72999    22.581471    25.639301 
   67800    243.52444   -280.80529    216009.12   -18541.202    1416.2311   -19957.433   -603.69112    447.55678    78.731789     22.58224    25.630889 
   68000    244.45407   -321.38061    216009.12   -18593.106    1421.6374   -20014.744     -797.776    447.82035    78.734298    22.581226     25.64237 
   68200    236.93875   -431.43349    216009.12   -18590.323    1377.9316   -19968.255   -1254.2165    450.75494    78.734418    22.579187    25.629632 
   68400    243.48432   -413.09001    216009.12   -18546.939    1415.9978   -19962.937   -1175.1867    451.87254     78.73446    22.577776    25.625778 
   68600    238.81308   -322.17292    216009.12    -18628.83    1388.8319   -20017.662    -794.2491     453.4151     78.73361    22.577547    25.649361 
   68800    239.47699   -404.54914    216009.12    -18584.99    1392.6929   -19977.683   -1167.7901    453.29409    78.735139    22.576495    25.659486 
   69000    238.38309   -267.89582    216009.12   -18604.302    1386.3313   -19990.633    -575.0393    453.64803    78.735949    22.574931    25.667919 
   69200    237.78294   -444.02372    216009.12   -18700.139    1382.8411    -20082.98    -1317.943    455.04855    78.737546    22.575143    25.674254 
   69400    243.05397   -302.44597    216009.12   -18717.672     1413.495   -20131.167   -694.55588    456.65136    78.738216    22.575808     25.70293 
   69600    249.63907   -358.32552    216009.12   -18528.546    1451.7911   -19980.337   -916.90717    458.42254    78.737702    22.578208    25.713269 
   69800    234.46834   -264.85231    216009.12   -18658.035    1363.5648     -20021.6    -577.2972    458.81829    78.739182     22.57821    25.716789 
   70000    237.43662   -211.74612    216009.12   -18606.547     1380.827   -19987.373   -270.12854    457.50947    78.740955    22.581252    25.697544 
   70200    249.01915   -447.24627    216009.12   -18599.394    1448.1859    -20047.58   -1363.1471    457.91693    78.743528    22.582837    25.672489 
   70400    243.56578   -366.97197    216009.12   -18573.253    1416.4715   -19989.724   -966.49838    458.29106    78.743713    22.583326    25.669481 
   70600    235.36887   -154.28575    216009.12   -18613.353    1368.8019   -19982.155   -117.81461    459.13809    78.745745    22.583152    25.672468 
   70800    236.06544   -316.05628    216009.12   -18611.143    1372.8528   -19983.996   -778.30387    457.91327    78.745829     22.58393    25.663972 
   71000    236.73558   -465.21106    216009.12   -18610.709    1376.7501    -19987.46   -1398.3151     461.7031     78.74773    22.582815    25.663342 
   71200    246.70988   -333.82758    216009.12    -18599.91    1434.7562   -20034.667   -815.25141    462.47682    78.748595    22.583509    25.659265 
   71400     237.9731   -392.09794    216009.12   -18635.704    1383.9469   -20019.651   -1110.1374     465.2198    78.747215      22.5825    25.624708 
   71600    241.89998   -302.83602    216009.12    -18607.11    1406.7839   -20013.894   -665.61036     465.2421    78.746637    22.581701    25.644798 
   71800    235.78398   -410.75585    216009.12   -18688.093     1371.216   -20059.309   -1196.7534    466.61105    78.749076    22.578968    25.644847 
   72000    238.67794   -392.84565    216009.12   -18666.044     1388.046    -20054.09   -1094.9247    468.17039    78.746923    22.577551    25.652545 
   72200    243.08247   -412.35498    216009.12   -18514.066    1413.6608   -19927.727   -1188.7802    468.74226    78.745971    22.577838    25.643229 
   72400    240.05482   -118.31362    216009.12   -18616.837    1396.0533    -20012.89    67.099718    468.14823    78.742915    22.579864    25.644869 
   72600    231.49997     -419.316    216009.12   -18580.721    1346.3021   -19927.023   -1209.8441    468.98275    78.741986    22.578073     25.65897 
   72800    243.10681   -312.54479    216009.12   -18560.892    1413.8023   -19974.694   -781.90237    469.20602    78.743232    22.576651    25.638739 
   73000    233.51052    -571.6332    216009.12   -18604.278    1357.9945   -19962.273    -1896.675    470.72772    78.744426    22.575412    25.622411 
   73200    244.99983   -333.39434    216009.12   -18513.923    1424.8113   -19938.735    -856.4371    472.00257    78.741802    22.574376     25.60612 
   73400    246.81469   -332.13978    216009.12   -18528.923    1435.3657   -19964.289   -802.48903    471.02733    78.741594    22.574504    25.592666 
   73600    240.14902   -379.14002    216009.12   -18552.853    1396.6011   -19949.455   -1026.3278    472.60252    78.741535    22.575898    25.587158 
   73800    229.00147   -406.54213    216009.12   -18669.256    1331.7719   -20001.027   -1113.4897    474.13158    78.741465    22.575408     25.60058 
   74000    229.98812   -113.50802    216009.12   -18683.301    1337.5098    -20020.81    54.361418    471.89492      78.7435    22.574271    25.601242 
   74200    238.30163   -272.47469    216009.12   -18606.035    1385.8575   -19991.893   -600.00279    472.70682    78.743442    22.573518    25.609131 
   74400    241.74796   -258.06755    216009.12    -18579.89    1405.8999    -19985.79   -533.64205    473.87931    78.743059    22.572612    25.626262 
   74600    237.75473   -296.10875    216009.12   -18625.459     1382.677   -20008.136    -672.9882      473.562    78.742957    22.570359    25.617609 
   74800    234.69146   -275.85287    216009.12   -18622.433    1364.8624   -19987.296    -557.8398    474.21807    78.741925    22.570744    25.597781 
   75000    235.78901   -423.59233    216009.12   -18632.427    1371.2452   -20003.672   -1193.0166     474.3856    78.744226    22.570945    25.580626 
   75200    240.17158   -201.23278    216009.12   -18580.201    1396.7324   -19976.934   -266.19811    474.90779    78.745159    22.572321    25.559341 
   75400    237.28539   -316.67935    216009.12   -18615.308    1379.9475   -19995.255   -816.60614    474.63441    78.743588    22.573436    25.553877 
   75600    243.97528   -106.99519    216009.12   -18606.206     1418.853   -20025.059    144.15936    475.64338    78.744194    22.570764    25.549926 
   75800     236.3636   -331.39613    216009.12   -18565.267    1374.5868   -19939.854   -861.69966    477.82774     78.74077    22.566778    25.551434 
   76000    246.20094   -397.35912    216009.12   -18576.991    1431.7964   -20008.788   -1101.9614    479.69357    78.740442    22.565916    25.546268 
   76200    236.04217   -435.21955    216009.12   -18644.965    1372.7175   -20017.682   -1271.3587    482.36064    78.739685    22.565496    25.559185 
   76400     236.5577   -313.83214    216009.12   -18611.047    1375.7156   -19986.763    -775.6115    483.57509    78.740007    22.563955    25.543556 
   76600     240.0639   -281.34444    216009.12   -18607.958    1396.1061   -20004.064   -677.58607    485.05101    78.739591    22.560962    25.528568 
   76800    236.64517   -365.18638    216009.12   -18636.372    1376.2243   -20012.596   -1003.4761    486.97279    78.736399    22.560714     25.53517 
   77000    240.75769   -306.35098    216009.12    -18598.24    1400.1409   -19998.381   -735.12543    485.88334    78.733448    22.559169    25.495297 
   77200    244.19471   -177.10702    216009.12   -18556.307    1420.1291   -19976.436   -230.01857    488.71353    78.732049    22.556569    25.488313 
   77400    238.55719   -405.45456    216009.12   -18542.703    1387.3438   -19930.047    -1129.004    489.66171    78.729766    22.557631    25.482133 
   77600    239.96764   -217.23733    216009.12   -18619.183    1395.5463    -20014.73   -384.32848    488.89791    78.730091    22.559673    25.471551 
   77800    243.78069   -141.01057    216009.12   -18594.003    1417.7213   -20011.724   -18.059894    491.32751    78.732379    22.560606    25.481156 
   78000      238.613   -416.16708    216009.12   -18640.373    1387.6683   -20028.041   -1204.9845    492.48473    78.734662    22.560998    25.494518 
   78200    238.21006   -351.05385    216009.12   -18601.487     1385.325   -19986.812   -962.86438    492.44493    78.735826    22.561504    25.507256 
   78400    240.71842   -372.03787    216009.12   -18591.322    1399.9125   -19991.234   -996.46845      496.116    78.736754    22.561052    25.516361 
   78600     239.4233   -323.57264    216009.12   -18584.982    1392.3807   -19977.363   -822.50798    495.02293    78.735734    22.561765    25.534851 
   78800    240.20295   -380.78279    216009.12   -18566.812    1396.9148   -19963.727   -1020.9561    496.64125    78.735543    22.558079    25.527417 
   79000     241.6247   -222.18324    216009.12   -18512.219     1405.183   -19917.402   -320.23269    495.23084    78.735123    22.558597    25.531848 
   79200    242.79715   -429.80418    216009.12   -18509.159    1412.0015   -19921.161   -1245.4644    499.14982    78.736392    22.558933    25.519325 
   79400    247.93816   -112.53125    216009.12   -18512.411    1441.8994    -19954.31    75.631569    501.23324    78.735584    22.557707    25.530798 
   79600    240.40347   -346.78515    216009.12    -18588.43    1398.0809   -19986.511   -937.35733    503.05189    78.736916    22.558065    25.520729 
   79800    240.60747   -318.89761    216009.12   -18598.276    1399.2673   -19997.543   -765.23538    505.29866    78.738364    22.558459    25.512398 
   80000    233.78563   -225.54655    216009.12   -18619.146    1359.5944    -19978.74   -410.34545    506.19943    78.737272    22.558253    25.513619 
   80200      241.264   -345.98231    216009.12   -18592.349    1403.0853   -19995.434   -911.49862    509.12613    78.736159    22.558105    25.525093 
   80400      239.194   -320.77208    216009.12   -18631.576    1391.0472   -20022.623   -796.75086    510.24337     78.73334     22.55864    25.529922 
   80600    236.52399   -87.974122    216009.12   -18637.389    1375.5195   -20012.909    204.76965    509.33653    78.733356    22.558085    25.538794 
   80800    246.00735   -213.50008    216009.12   -18620.098    1430.6706   -20050.769   -318.06246    511.69288    78.733796     22.55854    25.529575 
   81000    240.99321   -286.12332    216009.12   -18594.507    1401.5106   -19996.018   -663.66434    513.04217      78.7342    22.557275    25.520124 
   81200    242.52946   -404.25285    216009.12   -18635.218    1410.4447   -20045.663    -1123.681    516.76278    78.734731    22.558296    25.535873 
   81400    240.08975   -333.53677    216009.12   -18625.988    1396.2564   -20022.245   -876.19741    517.21303    78.734574    22.559189    25.523826 
   81600    234.29651    -288.6109    216009.12   -18655.096    1362.5655   -20017.662   -653.69008    517.04378    78.734759    22.557897    25.554541 
   81800    228.42675   -296.82659    216009.12   -18721.739    1328.4296   -20050.169    -690.4865    517.67204    78.734531    22.557108    25.576066 
   82000    236.74843    -212.5473    216009.12   -18620.414    1376.8248   -19997.238   -346.30069    519.08012    78.733483    22.553741    25.570584 
   82200    235.97713   -282.55077    216009.12   -18563.245    1372.3393   -19935.585   -648.12341    520.68544    78.737232    22.549969    25.572242 
   82400    235.55932   -367.03317    216009.12   -18585.718    1369.9094   -19955.627   -1038.4728    520.44035    78.737791    22.549527    25.582788 
   82600    244.71186   -153.96201    216009.12   -18520.616    1423.1366   -19943.753   -82.607132    521.81946    78.736867     22.55019    25.607693 
   82800    242.00758   -286.16825    216009.12   -18616.307    1407.4097   -20023.717   -656.72623    522.36616    78.736849    22.551105    25.617309 
   83000    242.04305   -311.61703    216009.12   -18567.924     1407.616    -19975.54   -753.20591    524.67052    78.738628    22.548178     25.63126 
   83200    240.04054    -204.9239    216009.12   -18565.548    1395.9703   -19961.518   -364.50139    527.55933    78.738892    22.546323    25.645397 
   83400    236.79459   -440.13842    216009.12    -18583.52    1377.0932   -19960.613   -1322.8772    527.27301    78.740171    22.543558    25.626563 
   83600    241.66031   -257.94736    216009.12   -18644.323    1405.3901   -20049.713   -550.88362    527.22589    78.740269    22.544046    25.626246 
   83800    239.05704   -253.98044    216009.12   -18614.739    1390.2506   -20004.989   -536.20908    529.41275    78.741748    22.545236    25.635177 
   84000    246.29262   -402.99084    216009.12   -18606.021    1432.3296    -20038.35    -1142.839    530.54273    78.741631    22.544959    25.633554 
   84200    243.64537   -352.10384    216009.12   -18636.797    1416.9344   -20053.732   -945.24458    532.33235    78.742665    22.546144    25.651861 
   84400     239.0778     -366.643    216009.12   -18664.233    1390.3714   -20054.604   -996.13717      531.995    78.744995    22.543441    25.683616 
   84600    240.01318   -366.53021    216009.12   -18608.742    1395.8111   -20004.553   -963.70125    531.22674    78.746243    22.546449    25.719205 
   84800    238.54147   -290.64733    216009.12   -18634.239    1387.2523   -20021.492    -659.9485    530.78695    78.745573    22.548517    25.720249 
   85000    241.95286   -398.19745    216009.12   -18594.054    1407.0915   -20001.146   -1131.8914    531.33453    78.747975    22.548519    25.730519 
   85200    239.48694   -389.94522    216009.12   -18595.948    1392.7508   -19988.699   -1089.8882    534.41632    78.747954    22.548694    25.723859 
   85400    231.56772   -390.94557    216009.12   -18650.457    1346.6961   -19997.153   -1097.4174    534.33853    78.747106     22.54771    25.713835 
   85600    238.43353   -236.42612    216009.12   -18638.862    1386.6246   -20025.486    -432.1038    535.46434    78.745934    22.543889    25.720538 
   85800    237.14945   -309.70065    216009.12   -18560.011    1379.1569   -19939.168   -710.07429    537.79955    78.745554    22.542052    25.716644 
   86000    243.90771   -420.95531    216009.12    -18618.61      1418.46    -20037.07   -1207.6668    541.50486    78.744858    22.541463    25.721789 
   86200    245.50187   -376.32415    216009.12   -18599.244    1427.7309   -20026.975   -1005.0276    541.52111    78.743348    22.542376    25.729226 
   86400    233.36836    -347.8406    216009.12   -18694.039    1357.1678   -20051.207   -912.83318    542.98492     78.74316    22.540729    25.750114 
   86600    243.87132   -259.90816    216009.12   -18594.742    1418.2484   -20012.991   -549.59175    542.33125    78.741646    22.542325    25.728501 
   86800     241.2227   -196.50189    216009.12   -18633.874    1402.8452   -20036.719   -282.63857    542.53529    78.742188    22.538064    25.730403 
   87000    236.74875   -434.53265    216009.12   -18622.568    1376.8266   -19999.395   -1294.3453    545.60179    78.745335    22.535131    25.711758 
   87200    243.97449   -106.17754    216009.12   -18611.942    1418.8484   -20030.791    129.95135    544.85009    78.745424    22.535178    25.717683 
   87400    243.31394   -341.01409    216009.12   -18621.287    1415.0069   -20036.294   -864.84577    546.00409    78.743799    22.536479    25.691461 
   87600    239.16857   -257.66603    216009.12   -18620.284    1390.8992   -20011.183   -501.92624     547.9716    78.744894    22.538855    25.701773 
   87800     229.9363   -414.07316    216009.12   -18635.289    1337.2085   -19972.497   -1198.8268     547.4046    78.745941    22.540258    25.711057 
   88000    240.23563    -285.3668    216009.12   -18606.727    1397.1048   -20003.832   -645.77776    549.67571    78.745466    22.541802    25.705413 
   88200     237.4083   -331.58531    216009.12   -18703.431    1380.6623   -20084.093   -801.96922    550.97374    78.742541    22.543082    25.698352 
   88400     237.9612   -361.25372    216009.12   -18597.336    1383.8777   -19981.213   -939.77738    548.49608    78.741424     22.54336    25.692542 
   88600    235.59703   -320.07406    216009.12   -18593.748    1370.1288   -19963.877   -804.04007    547.82426    78.741613    22.542062    25.688102 
   88800    233.94204   -322.37143    216009.12   -18683.877     1360.504   -20044.381   -803.71013    547.94543    78.741687    22.541771     25.69327 
   89000    235.90097   -338.73988    216009.12   -18643.891    1371.8963   -20015.788   -898.15678    549.57165    78.742481    22.539361    25.661592 
   89200    242.44174   -297.24826    216009.12   -18621.718    1409.9346   -20031.653   -734.37402    550.03706    78.740786    22.538815    25.644597 
   89400    235.38612   -215.87674    216009.12   -18645.587    1368.9022   -20014.489   -338.32498    551.38556    78.743131    22.539812    25.617127 
   89600    236.13163   -314.72729    216009.12   -18756.364    1373.2378   -20129.602   -775.81964    554.38408    78.744349    22.540015    25.618627 
   89800    244.53415   -256.80382    216009.12   -18631.742    1422.1031   -20053.845   -569.84166     552.0623    78.744652    22.541787    25.614972 
   90000    240.21907   -45.380878    216009.12   -18663.717    1397.0085   -20060.726    407.12653    554.39808    78.744121    22.543699    25.642908 
   90200    229.71331   -345.16089    216009.12   -18676.266    1335.9116   -20012.177   -934.51511    557.71913    78.743993    22.545127    25.656255 
   90400    236.94629   -260.91862    216009.12   -18636.552    1377.9754   -20014.528   -542.14908    559.02476    78.739115    22.549036    25.662612 
   90600    244.32502   -318.26624    216009.12   -18609.298    1420.8869   -20030.185   -795.68087    563.28789    78.739216    22.551738    25.666643 
   90800    247.01419   -439.24047    216009.12   -18629.019     1436.526   -20065.545   -1288.4902    564.48817    78.737545     22.55171    25.638011 
   91000    235.07418   -481.58006    216009.12   -18660.881    1367.0881   -20027.969    -1467.216    565.62986    78.736951    22.552549    25.605756 
   91200    227.25466   -372.54758    216009.12   -18727.216    1321.6132   -20048.829   -1010.1758    565.91976     78.73598    22.552649    25.601726 
   91400    237.46449   -311.24472    216009.12   -18613.797    1380.9891   -19994.786   -777.11261    565.66151    78.736061    22.553475    25.602654 
   91600    248.48839   -223.86995    216009.12   -18536.261    1445.0993    -19981.36   -397.95393    569.03869    78.735918    22.553912    25.615785 
   91800    246.96587   -175.11168    216009.12   -18528.362     1436.245   -19964.607   -169.05884    568.70652    78.736002    22.552967    25.626876 
   92000    241.29109   -318.95839    216009.12   -18525.949    1403.2429   -19929.192   -802.68963    569.48974    78.739887    22.554609    25.632255 
   92200    233.94284   -430.52757    216009.12   -18559.362    1360.5087   -19919.871   -1281.3266    570.19143    78.742034    22.553869     25.62369 
   92400    240.34721   -290.24973    216009.12   -18531.769    1397.7537   -19929.523   -621.67876    572.09127    78.742216    22.554468    25.610887 
   92600    242.69019   -352.40964    216009.12   -18490.534    1411.3795   -19901.913   -932.15423    575.58169    78.740488    22.554289    25.601778 
   92800    240.88236   -285.56919    216009.12   -18576.081    1400.8659   -19976.947   -639.97939    575.38121    78.739497    22.552183    25.594341 
   93000    240.89002   -343.55107    216009.12   -18638.302    1400.9105   -20039.212   -884.71219    574.55638    78.739869    22.552321    25.613616 
   93200    241.03499   -245.50998    216009.12   -18628.369    1401.7535   -20030.123   -488.55983    574.04606    78.738882    22.550556    25.603141 
   93400    236.83358   -322.63906    216009.12   -18712.063      1377.32   -20089.383   -746.64068    575.48645    78.740031     22.55034    25.624611 
   93600    238.83818   -205.20438    216009.12   -18620.342    1388.9779    -20009.32   -257.57179    576.41002    78.739348    22.549349    25.626853 
   93800    230.10107   -313.85198    216009.12   -18626.475    1338.1666   -19964.641   -748.59804    576.97404    78.740365    22.550248    25.635088 
   94000    237.39113   -400.37893    216009.12   -18640.064    1380.5625   -20020.626   -1137.0057      580.808    78.741208    22.548467    25.635768 
   94200    245.44159   -226.41691    216009.12   -18568.576    1427.3804   -19995.957   -397.96092    581.66208    78.742908    22.545584    25.647976 
   94400    240.93746   -369.72112    216009.12    -18605.62    1401.1863   -20006.806   -1014.3868    581.39102    78.742927    22.544985    25.658046 
   94600    236.74252   -360.90466    216009.12   -18634.687    1376.7904   -20011.478   -927.04189    583.01286    78.742891    22.545425    25.644098 
   94800    239.96448   -377.57341    216009.12    -18653.36    1395.5279   -20048.888   -1042.0047    584.50977     78.74255    22.544211    25.643569 
   95000    250.55789    -320.5449    216009.12   -18673.204    1457.1346   -20130.339   -770.78102    582.30858     78.74162    22.545166    25.612982 
   95200    237.48181   -337.63649    216009.12   -18633.897    1381.0898   -20014.987   -843.36195    584.01816    78.741133    22.542913    25.615321 
   95400    234.82963   -354.85601    216009.12   -18629.608    1365.6659   -19995.274   -963.89394    583.04301    78.741747    22.542581    25.602519 
   95600    234.45648   -200.64506    216009.12    -18607.86    1363.4958   -19971.356   -298.93403    583.66901     78.74187    22.541695    25.596959 
   95800    238.93988   -430.82435    216009.12   -18568.699    1389.5693   -19958.268   -1266.5867    587.38679    78.738113    22.539544    25.586842 
   96000    238.06196   -324.46602    216009.12   -18525.941    1384.4637   -19910.404   -853.39094    586.15226    78.738593    22.536737    25.603477 
   96200    241.23574   -380.44009    216009.12    -18521.57     1402.921   -19924.491    -1059.251    585.29927    78.739422    22.536513     25.59986 
   96400    243.84952   -237.58543    216009.12   -18569.947    1418.1216   -19988.068   -485.60558    587.49822    78.739032    22.532946    25.599726 
   96600    233.91306   -173.42667    216009.12   -18606.311    1360.3355   -19966.647   -132.12569    586.49276     78.73808    22.530698    25.588404 
   96800    235.19448   -331.32394    216009.12   -18540.959    1367.7877   -19908.746   -833.08988    587.82156     78.73824    22.531425    25.599157 
   97000    235.00101   -349.32436    216009.12   -18582.212    1366.6626   -19948.874   -899.57146    589.92691    78.740941    22.531678    25.625713 
   97200    242.83151   -154.26974    216009.12   -18577.445    1412.2013   -19989.647   -109.95081    591.17822    78.743217    22.533141    25.632814 
   97400    237.80598   -350.60059    216009.12   -18551.109    1382.9751   -19934.084   -873.81388     593.1431    78.744441    22.536216    25.617217 
   97600    239.92055   -402.24461    216009.12   -18485.509    1395.2725   -19880.782   -1147.6184     592.6654    78.744419    22.539054    25.598665 
   97800    243.27481   -375.86349    216009.12   -18549.305    1414.7793   -19964.084   -1026.0867    592.57081    78.746306    22.539214    25.601212 
   98000    238.57967   -368.01835    216009.12   -18594.448    1387.4745   -19981.922   -996.34291    593.97218    78.747071    22.539137    25.594255 
   98200    229.44087   -395.97676    216009.12   -18616.126    1334.3273   -19950.453   -1170.0408    593.09449    78.747301     22.53628    25.576535 
   98400    238.58185    -454.3126    216009.12   -18565.424    1387.4872   -19952.911   -1412.6942    596.52962    78.749405    22.535848    25.575432 
   98600    241.95981   -115.28535    216009.12   -18575.387    1407.1319   -19982.519    97.223932    595.31008    78.748882    22.536511    25.578592 
   98800    240.39734     -206.343    216009.12   -18540.129    1398.0452   -19938.175   -312.87531    597.31345    78.749388     22.53474     25.58827 
   99000    242.44444   -260.24603    216009.12   -18601.969    1409.9503   -20011.919   -542.37556    596.63764    78.751564    22.534634    25.580567 
   99200    243.63198   -199.55085    216009.12    -18605.24    1416.8565   -20022.097   -286.27757     598.5046    78.749709    22.533207    25.601842 
   99400    228.24562   -221.11623    216009.12    -18608.92    1327.3762   -19936.296   -398.95256    599.00315    78.750983    22.535134    25.615415 
   99600    239.39698   -279.49602    216009.12   -18574.081    1392.2276   -19966.309   -607.68882    598.34242    78.751055    22.538962    25.621522 
   99800    242.45887   -365.33613    216009.12   -18594.765    1410.0342   -20004.799    -989.8128    599.36535    78.748249    22.538904    25.609452 
  100000     245.2791   -350.61136    216009.12   -18562.893    1426.4354   -19989.328   -943.17605    600.92826    78.749854    22.537851    25.592817 
  100200    230.45164   -347.22766    216009.12   -18649.742    1340.2054   -19989.948   -907.41926    603.10663    78.751802     22.53553    25.601499 
  100400    243.82496   -500.75556    216009.12   -18589.271    1417.9788    -20007.25   -1535.7252    605.12817    78.754137    22.533593    25.599071 
  100600     238.7896   -163.36514    216009.12   -18631.438    1388.6954   -20020.133    -137.8639    602.96346    78.753949    22.534639    25.579059 
  100800    232.68528   -382.21696    216009.12   -18647.734    1353.1953   -20000.929    -1009.859    606.85158    78.753311    22.536532     25.59018 
[...]
 5175800    220.91236    -629.8735    216009.12   -20626.742    1284.7292   -21911.472   -2042.3894    8390.5929    79.940595    23.421871     25.47628 
 5176000    221.09895   -631.96658    216009.12   -20616.706    1285.8143    -21902.52   -2052.3427    8390.0628    79.940483    23.423617    25.476736 
 5176200     227.8183   -722.83865    216009.12   -20615.567    1324.8911   -21940.458   -2430.5055    8393.0611    79.941389    23.424263    25.473478 
 5176400    221.27601   -600.89263    216009.12   -20642.697     1286.844   -21929.541   -1889.4441    8391.5484    79.940612    23.425617     25.47364 
 5176600    228.84702   -582.36466    216009.12   -20594.586    1330.8737    -21925.46   -1834.1311    8388.4925    79.938783    23.426946    25.475065 
 5176800     233.2463   -712.82305    216009.12   -20562.674     1356.458   -21919.131   -2362.6492    8393.9774    79.939065    23.427735    25.478058 
 5177000    232.91268   -644.57587    216009.12   -20572.969    1354.5177   -21927.486   -2131.3486    8391.0249    79.938025    23.428113    25.468397 
 5177200    231.16414   -529.68733    216009.12   -20587.656     1344.349   -21932.005   -1648.8768    8389.0201    79.935902    23.428137    25.472269 
 5177400    228.17368   -740.19259    216009.12    -20606.45    1326.9578   -21933.408    -2508.703    8392.8142    79.936187    23.429244    25.480116 
 5177600    226.80751   -643.43405    216009.12   -20561.793    1319.0128   -21880.805   -2102.6301    8393.6779    79.934637    23.429333    25.471366 
 5177800    231.69724   -499.31349    216009.12   -20594.756    1347.4493   -21942.205   -1465.2596    8387.8893     79.93316    23.429671    25.475315 
 5178000    226.61633    -699.9258    216009.12   -20618.352     1317.901   -21936.253   -2359.6237    8394.2834    79.934034    23.431063      25.4738 
 5178200    221.45806   -589.17326    216009.12   -20617.918    1287.9027   -21905.821   -1835.8729     8391.195    79.933863    23.432623     25.46895 
 5178400    228.17233   -480.61971    216009.12   -20624.703      1326.95   -21951.653   -1384.3287    8388.5238    79.932965    23.434416    25.474137 
 5178600    228.38693   -689.10887    216009.12   -20610.306     1328.198   -21938.504   -2258.3984    8392.2883    79.931776    23.436138    25.473494 
 5178800       230.76   -611.88884    216009.12   -20572.847    1341.9987   -21914.846   -1918.8028    8392.9738    79.931342    23.436412    25.464972 
 5179000    233.13411    -548.7195    216009.12   -20601.424    1355.8055   -21957.229   -1687.1513    8389.3052    79.930097    23.437854    25.464247 
 5179200    228.39144   -666.03407    216009.12   -20570.716    1328.2242    -21898.94    -2191.002    8393.6053    79.929616     23.43919    25.464996 
 5179400     223.3113   -664.30119    216009.12   -20631.705    1298.6804   -21930.386   -2140.3095      8390.92     79.93056    23.439347     25.46984 
 5179600     234.6279   -521.29009    216009.12   -20527.546    1364.4927   -21892.039   -1594.3473    8389.5112    79.929328    23.440769    25.470371 
 5179800    223.47741   -687.02224    216009.12   -20587.399    1299.6464   -21887.046   -2279.0036    8393.8608    79.928453    23.441952    25.470499 
 5180000    224.86445   -698.45742    216009.12   -20609.813    1307.7128   -21917.526   -2310.4494    8393.6965    79.927741    23.442393    25.472859 
 5180200      220.342   -610.89836    216009.12   -20684.873    1281.4122   -21966.285   -1973.1374    8390.5096    79.926105    23.442587     25.47855 
 5180400    224.66106    -675.8164    216009.12   -20655.617      1306.53   -21962.147   -2211.7846    8392.9051    79.925234    23.442021    25.485817 
 5180600    233.44786   -705.28594    216009.12    -20605.27    1357.6301     -21962.9   -2347.0911    8391.8356    79.924533    23.442789    25.483926 
 5180800     229.0711   -531.38638    216009.12   -20578.455    1332.1768   -21910.631   -1620.6481    8389.0766    79.923278     23.44243    25.479666 
 5181000    224.06147   -656.88768    216009.12   -20617.313     1303.043   -21920.356   -2152.4878    8391.6335    79.921943    23.442416    25.479273 
 5181200    223.34703    -722.3105    216009.12   -20617.234    1298.8881   -21916.122   -2442.2223    8392.9884     79.92272    23.442175    25.474178 
 5181400    224.99992   -606.71163    216009.12   -20662.427    1308.5006   -21970.928   -1972.2643    8389.7463    79.922611    23.441136    25.474182 
 5181600     228.9916   -673.95272    216009.12   -20592.595    1331.7145   -21924.309   -2226.1604    8392.0844    79.922129    23.441473    25.474902 
 5181800     222.1609   -643.19021    216009.12   -20670.723    1291.9901   -21962.713   -2035.7372    8392.8444    79.923005    23.440532    25.476044 
 5182000    226.76691   -613.84838    216009.12   -20586.421    1318.7767   -21905.197   -1970.0078    8388.6719    79.923415    23.439964    25.477081 
 5182200    230.21233   -653.46955    216009.12   -20579.871    1338.8137   -21918.685   -2164.1281     8390.011    79.924582    23.439077    25.477884 
 5182400    229.77251   -641.71715    216009.12    -20570.56    1336.2559   -21906.816   -2094.8918    8390.3312    79.926248    23.437545    25.471718 
 5182600    219.56254   -660.25079    216009.12   -20650.117    1276.8792   -21926.996   -2237.5089    8388.0854    79.925967     23.43776    25.475627 
 5182800    230.60705   -633.63783    216009.12   -20590.105    1341.1092   -21931.215   -2068.8057    8391.3391    79.926388    23.437212    25.476239 
 5183000    229.58383   -655.54249    216009.12   -20580.558    1335.1586   -21915.717   -2174.8949     8392.845    79.925885    23.436991    25.479073 
 5183200    231.70306   -645.06667    216009.12   -20523.696    1347.4831   -21871.179   -2118.8798    8388.3659     79.92586     23.43761    25.485026 
 5183400    235.29524   -620.37153    216009.12   -20537.933    1368.3737   -21906.307   -2032.9743    8390.1194    79.926791    23.437585    25.473046 
 5183600    226.68034   -719.35332    216009.12   -20622.873    1318.2732   -21941.146   -2426.1383    8391.1394    79.927439    23.438073    25.482435 
 5183800    219.40131   -538.29276    216009.12   -20660.319    1275.9416    -21936.26   -1625.9963    8388.1177    79.928189    23.438405     25.47967 
 5184000    223.43358   -596.88194    216009.12   -20659.814    1299.3915   -21959.206   -1903.0607    8391.9067    79.930194    23.437636     25.48029 
 5184200    231.19665   -735.77889    216009.12   -20549.587    1344.5381   -21894.125   -2546.8338    8392.0173    79.930983    23.437055    25.470101 
 5184400    226.04596   -550.41891    216009.12     -20621.3    1314.5839   -21935.884   -1732.5864    8390.4193    79.931621    23.437349    25.473408 
 5184600    228.38905   -598.90919    216009.12   -20554.007    1328.2103   -21882.217   -1936.8968    8389.5623    79.933284    23.437411    25.480261 
 5184800    227.51412   -677.92142    216009.12   -20602.861    1323.1221   -21925.983   -2260.1152    8393.9333    79.933989    23.437688    25.476862 
 5185000    226.81273   -571.85979    216009.12   -20615.522    1319.0431   -21934.565    -1814.895    8392.2051    79.934334    23.438024    25.469693 
 5185200    225.55287   -591.55023    216009.12   -20595.254    1311.7164    -21906.97   -1872.8641    8391.0682     79.93597    23.439081    25.472161 
 5185400    221.87514   -677.64758    216009.12   -20628.993    1290.3283   -21919.321   -2270.2676    8392.4401    79.937313    23.439469    25.477649 
 5185600    225.92515   -546.08996    216009.12   -20592.414    1313.8813   -21906.295   -1724.7371     8390.033    79.937382     23.43956    25.475462 
 5185800    226.73163   -639.33932    216009.12   -20609.134    1318.5715   -21927.705   -2103.9666    8391.1217    79.937541    23.439524    25.480403 
 5186000    230.57078   -712.13325    216009.12   -20566.586    1340.8983   -21907.484   -2429.8231     8393.087    79.937767    23.438924     25.47831 
 5186200    227.99234   -527.36344    216009.12   -20581.961    1325.9032   -21907.865   -1554.5194    8388.6484    79.937818    23.439721    25.476676 
 5186400    231.60428   -639.63402    216009.12   -20590.617    1346.9087   -21937.526   -2085.9204     8391.666    79.938433    23.440145    25.483325 
 5186600     231.9617   -737.50876    216009.12   -20585.864    1348.9873   -21934.852   -2519.7476    8393.2961    79.939152    23.439646    25.481689 
 5186800    224.42824   -615.09231    216009.12   -20586.449     1305.176   -21891.625   -1955.0658    8389.7919    79.938977    23.439301     25.48327 
 5187000    224.22094   -563.07034    216009.12   -20611.244    1303.9704   -21915.215   -1766.5003    8390.0198    79.938103    23.439137    25.477271 
 5187200    229.15711   -715.79164    216009.12   -20570.973     1332.677    -21903.65   -2416.3266    8393.4375    79.938281     23.43789    25.475763 
 5187400    227.44937   -615.04843    216009.12   -20584.777    1322.7456   -21907.522   -1960.5435    8388.5602    79.937691     23.43711    25.474314 
 5187600    225.29102   -589.33842    216009.12    -20623.12    1310.1936   -21933.313   -1873.4651    8387.2335     79.93505    23.438361    25.472224 
 5187800    233.61629   -651.39797    216009.12   -20578.352    1358.6097   -21936.962   -2135.7755    8391.0798    79.935313    23.436942    25.477196 
 5188000    230.43698   -639.18345    216009.12   -20597.805    1340.1202   -21937.925   -2117.4252    8390.2373    79.935257    23.435691    25.474314 
 5188200    230.23801   -541.86001    216009.12   -20552.126    1338.9631   -21891.089   -1703.7021    8389.6924    79.935618    23.435086    25.480225 
 5188400    232.04033   -695.00862    216009.12   -20580.022    1349.4446   -21929.466   -2323.9199    8392.9073    79.935814    23.435158    25.485611 
 5188600    227.51749   -639.90156    216009.12   -20590.528    1323.1417   -21913.669   -2056.3816    8390.4539    79.936349     23.43561    25.483723 
 5188800    228.84667    -619.7929    216009.12   -20643.532    1330.8717   -21974.403   -1998.1925    8389.8636    79.937486    23.435643     25.48144 
 5189000    221.14999   -687.99885    216009.12    -20636.85    1286.1111   -21922.961   -2295.2194    8389.8657     79.93755    23.436439    25.477872 
 5189200    219.84415   -699.09111    216009.12   -20630.747     1278.517   -21909.264   -2370.0666    8391.5705    79.936635     23.43746    25.482049 
 5189400    220.47835   -542.83471    216009.12   -20692.815    1282.2052    -21975.02   -1667.9703     8389.476    79.935667    23.436804    25.485082 
 5189600    222.89095   -725.24645    216009.12   -20641.254    1296.2358    -21937.49   -2450.4116    8389.9393    79.935631    23.436762    25.477636 
 5189800    225.65035   -638.12936    216009.12   -20596.002    1312.2832   -21908.285   -2090.7953    8389.5981    79.936704    23.435694    25.476371 
 5190000    223.97421   -539.96672    216009.12   -20619.614    1302.5355    -21922.15   -1642.2059    8391.8377    79.937679    23.435551    25.478721 
 5190200     229.9972   -678.75847    216009.12   -20598.371    1337.5626   -21935.933   -2271.3838    8390.1053    79.937879    23.435126    25.484683 
 5190400    228.25804   -611.62306    216009.12   -20614.721    1327.4484   -21942.169    -1958.246    8390.6286    79.939025    23.434275    25.478409 
 5190600    233.40559   -581.25557    216009.12   -20548.176    1357.3843    -21905.56   -1856.5861    8388.1061    79.938361    23.432138    25.483488 
 5190800    221.26388   -710.45555    216009.12   -20618.644    1286.7735   -21905.417   -2405.3546    8390.9528     79.93728     23.43232    25.476088 
 5191000    231.48932   -614.64818    216009.12   -20601.998    1346.2401   -21948.239   -1967.5618    8389.2956    79.938301    23.431823    25.480443 
 5191200    230.78509   -536.22245    216009.12   -20580.351    1342.1446   -21922.496   -1630.6068    8387.4492    79.938221    23.431353    25.482878 
 5191400    231.45231   -657.30302    216009.12   -20615.872    1346.0249   -21961.897   -2182.1412    8388.6696    79.936926     23.43095    25.482911 
 5191600    221.77258   -767.38561    216009.12   -20630.296    1289.7319   -21920.027    -2673.428    8391.9492    79.936824    23.430846    25.482716 
 5191800    224.97396   -554.51783    216009.12    -20624.57    1308.3497    -21932.92   -1726.8036    8387.4548    79.936441    23.430018    25.484023 
 5192000    231.05201   -623.04599    216009.12   -20576.988    1343.6969   -21920.685   -2035.0497    8390.5551    79.936702    23.429742    25.485893 
 5192200    225.81203   -654.61533    216009.12   -20542.144    1313.2235   -21855.367   -2160.4233    8390.8882    79.936397    23.428266     25.48224 
 5192400      224.966   -623.50957    216009.12   -20617.398    1308.3033   -21925.701   -2027.6497    8390.0359     79.93519    23.427921    25.483753 
 5192600    226.50559   -609.88055    216009.12   -20602.726     1317.257   -21919.983   -2000.0795    8389.2776    79.934866    23.427787     25.48142 
 5192800    230.82428   -666.01208    216009.12   -20621.316    1342.3725   -21963.689   -2204.0255    8390.6792    79.935687    23.427492    25.485304 
 5193000    224.96165   -678.17297    216009.12   -20593.755    1308.2781   -21902.033   -2263.3726    8390.7231    79.934714    23.428079    25.486635 
 5193200     227.2679   -581.01323    216009.12    -20656.89    1321.6902    -21978.58   -1864.9323    8387.8442    79.933903    23.427239    25.488447 
 5193400    231.75211   -739.77963    216009.12   -20573.973    1347.7684   -21921.741   -2522.7261    8389.3181    79.933358    23.426074     25.48878 
 5193600    224.01324    -616.7174    216009.12   -20596.872    1302.7625   -21899.634    -1952.632    8390.3369    79.932875    23.425717    25.481708 
 5193800    227.16668   -489.40821    216009.12    -20585.07    1321.1016   -21906.171   -1436.9861    8386.5402    79.933005    23.425329    25.486129 
 5194000    232.15355   -655.85807    216009.12   -20579.903     1350.103   -21930.006   -2137.2109    8387.9782     79.93372    23.425464    25.485479 
 5194200    219.66154   -695.69745    216009.12   -20658.165    1277.4549    -21935.62   -2359.9889    8389.4868    79.933063    23.423907    25.487491 
 5194400    226.44598   -528.03747    216009.12   -20634.328    1316.9103   -21951.238   -1626.1408     8384.663     79.93289    23.423566    25.485106 
 5194600    219.95041   -669.69296    216009.12   -20595.069    1279.1349   -21874.203   -2244.6181    8390.0305    79.931698    23.422765    25.482871 
 5194800    230.67855   -646.33166    216009.12   -20552.355     1341.525    -21893.88   -2072.2365    8388.9139    79.932493    23.420963    25.488041 
 5195000    227.22254   -593.35931    216009.12   -20606.433    1321.4264   -21927.859   -1899.8395    8384.8255     79.93245    23.419376    25.486526 
 5195200    230.51689   -697.32944    216009.12   -20521.278    1340.5849   -21861.863   -2321.7831    8388.5858    79.931375    23.417628    25.481212 
 5195400    227.18719   -702.40568    216009.12   -20586.123    1321.2208   -21907.344   -2370.7606    8388.9209    79.929411    23.416446    25.483099 
 5195600    228.57065   -551.19867    216009.12   -20545.604    1329.2664    -21874.87   -1712.8689    8384.6233    79.928554    23.416472    25.485504 
 5195800    231.91686   -645.63357    216009.12   -20614.559    1348.7265   -21963.286   -2088.8147    8389.7606     79.92701    23.415924    25.484441 
 5196000    228.33331   -705.14342    216009.12   -20531.203    1327.8862    -21859.09   -2343.4877    8391.5721    79.926567    23.413773    25.487251 
 5196200     227.6674   -559.16528    216009.12   -20561.478    1324.0135   -21885.491   -1738.6206    8385.8658    79.926811    23.413008    25.481851 
 5196400    226.47313   -585.61012    216009.12   -20610.757    1317.0681   -21927.825   -1880.9379    8390.8625    79.926708    23.411655    25.481587 
 5196600    222.79924   -732.11605    216009.12   -20571.296    1295.7024   -21866.998   -2468.5887    8392.8331    79.926725    23.410969    25.487742 
 5196800    229.28933   -538.33683    216009.12   -20588.775    1333.4459   -21922.221   -1642.9804    8387.8394    79.926352    23.408315    25.487312 
 5197000    228.19864    -580.0235    216009.12    -20576.15     1327.103   -21903.253    -1817.366    8387.9111    79.927556    23.407136    25.486978 
 5197200    229.62887   -794.61627    216009.12   -20547.385    1335.4206   -21882.805   -2765.2747    8392.2762    79.926244    23.406971    25.485321 
 5197400    225.27376   -530.15691    216009.12   -20613.039    1310.0931   -21923.132   -1641.2597    8389.7836    79.925965    23.406855    25.476664 
 5197600    222.68965   -589.63081    216009.12   -20616.512    1295.0651   -21911.577   -1911.8537    8386.3704    79.926685    23.406178    25.478048 
 5197800    223.40646   -725.26302    216009.12   -20629.061    1299.2337   -21928.294   -2433.7998    8391.4844    79.926195    23.405651    25.480371 
 5198000    220.67551   -629.92156    216009.12   -20677.077    1283.3518   -21960.429    -2071.152    8386.7132    79.924532    23.405087    25.480476 
 5198200    230.52454   -523.69218    216009.12   -20583.593    1340.6294   -21924.222   -1590.9035    8386.8274     79.92429    23.404533    25.476094 
 5198400    231.79578   -711.97233    216009.12   -20571.027    1348.0224    -21919.05   -2392.5622    8391.2598    79.924205    23.405085    25.483495 
 5198600    225.00662   -583.51596    216009.12    -20585.49    1308.5396   -21894.029   -1825.5392    8388.0557    79.923204    23.404102    25.475666 
 5198800    226.62685   -524.79676    216009.12   -20661.871    1317.9621   -21979.833   -1619.5854    8385.6034    79.922947    23.404359    25.473847 
 5199000    227.13617   -718.15809    216009.12   -20612.266    1320.9241   -21933.191   -2416.9529    8391.4025    79.922796     23.40396    25.476794 
 5199200    231.84035    -641.9766    216009.12   -20523.102    1348.2816   -21871.384   -2056.5151    8386.1598     79.92141    23.402641    25.477491 
 5199400    223.81275   -557.05721    216009.12   -20637.364    1301.5966   -21938.961   -1757.5024    8386.3817    79.921072    23.400471    25.482144 
 5199600    226.47581   -705.13899    216009.12   -20632.007    1317.0838   -21949.091    -2334.219    8390.5561     79.92119    23.400438    25.481015 
 5199800     224.0204   -660.29791    216009.12   -20599.245    1302.8042    -21902.05   -2175.0145    8388.9384    79.921083    23.398909    25.484726 
 5200000    227.66429   -492.22751    216009.12   -20608.127    1323.9954   -21932.122   -1473.3101    8386.3622    79.920664    23.396738    25.479609 
Loop time of 7122.78 on 160 procs for 5200000 steps with 9248 atoms

Performance: 630.765 ns/day, 0.038 hours/ns, 730.052 timesteps/s
97.7% CPU use with 160 MPI tasks x no OpenMP threads

MPI task timing breakdown:
Section |  min time  |  avg time  |  max time  |%varavg| %total
---------------------------------------------------------------
Pair    | 0.23674    | 1432.8     | 5634.4     |5122.2 | 20.12
Neigh   | 0.31851    | 91.277     | 416.97     |1245.3 |  1.28
Comm    | 11.151     | 1806.6     | 5719.2     |4563.5 | 25.36
Output  | 89.756     | 89.829     | 91.748     |   1.6 |  1.26
Modify  | 225.72     | 3603.2     | 6929.5     |4759.8 | 50.59
Other   |            | 99.12      |            |       |  1.39

Nlocal:    57.8 ave 196 max 0 min
Histogram: 72 23 25 0 0 0 0 0 13 27
Nghost:    533.163 ave 915 max 0 min
Histogram: 20 4 0 8 8 33 36 13 27 11
Neighs:    0 ave 0 max 0 min
Histogram: 160 0 0 0 0 0 0 0 0 0
FullNghs:  5860.95 ave 23565 max 0 min
Histogram: 111 9 0 0 0 0 0 1 20 19

Total # of neighbors = 937752
Ave neighs/atom = 101.401
Neighbor list builds = 546155
Dangerous builds = 0
write_data 		${DIR}/data.${NAME}_run
write_data 		run_19/data.${NAME}_run
write_data 		run_19/data.ibeam_cooling_19_run
Total wall time: 1:58:57
