
# Set production fixes - Nose/Hoover
#
fix                 4 water temp/csvr ${START_TEMP} ${END_TEMP} 500.0 928347
fix                 4 water temp/csvr 235 ${END_TEMP} 500.0 928347
fix                 4 water temp/csvr 235 225 500.0 928347


## divide "droplet" into core and surface
#region		core_reg cylinder z 135 135 44.6 20 INF units box
#region		surface_reg cylinder z 135 135 44.6 20 INF units box side out
#group		core dynamic all region core_reg
#group		surface dynamic all region surface_reg

## compute pressure core
#compute        peratom_core core stress/atom NULL
#compute        p_core core reduce sum c_peratom_core[1] c_peratom_core[2] c_peratom_core[3]
#variable       press_core equal -(c_p_core[1]+c_p_core[2]+c_p_core[3])/(3*1249982.5)


## compute pressure surface
#compute        peratom_surf surface stress/atom NULL
#compute        p_surf surface reduce sum c_peratom_surf[1] c_peratom_surf[2] #c_peratom_surf[3]
#variable       press_surf equal -(c_p_surf[1]+c_p_surf[2]+c_p_surf[3])/(3*42395)

## compute total pressure of drop
compute        peratom water stress/atom NULL
compute        p water reduce sum c_peratom[1] c_peratom[2] c_peratom[3]
variable       press equal -(c_p[1]+c_p[2]+c_p[3])/(3*50402)


# compute order parameter
compute        3 all orientorder/atom nnn NULL cutoff 3.5

# compute center of mass of bridge
compute 	4 water com

# Run simulation
thermo_style        custom step c_2 press vol etotal ke pe v_press c_1[4] c_4[*]
thermo              200
dump		     1 water custom 400 ${DIR}/prod.${NAME}.dump id type x y z vx vy vz c_3[*] c_peratom[*]
dump		     1 water custom 400 run_4/prod.${NAME}.dump id type x y z vx vy vz c_3[*] c_peratom[*]
dump		     1 water custom 400 run_4/prod.ibeam_cooling_4.dump id type x y z vx vy vz c_3[*] c_peratom[*]
run                 ${STEPS}
run                 4000000
Neighbor list info ...
  update every 1 steps, delay 0 steps, check yes
  max neighbors/atom: 2000, page size: 100000
  master list distance cutoff = 6.6747184
  ghost atom cutoff = 6.6747184
  binsize = 3.3373592, bins = 24 25 11
  2 neighbor lists, perpetual/occasional/extra = 1 1 0
  (1) pair sw, perpetual
      attributes: full, newton on
      pair build: full/bin/atomonly
      stencil: full/bin/3d
      bin: standard
  (2) compute orientorder/atom, occasional, copy from (1)
      attributes: full, newton on
      pair build: copy
      stencil: none
      bin: none
Per MPI rank memory allocation (min/avg/max) = 6.132 | 6.762 | 7.258 Mbytes
Step c_2 Press Volume TotEng KinEng PotEng v_press c_1[4] c_4[1] c_4[2] c_4[3] 
       0    237.29548   -530.33379    216156.16   -20196.677    1503.0821   -21699.759   -1585.2772    30.598362    39.419343    39.236415    23.724397 
     200     230.9524   -479.40659    216156.16    -20242.88    1462.9036   -21705.784   -1387.2167    31.722761    39.420192    39.236402    23.730908 
     400    235.41825   -386.43576    216156.16   -20240.676    1491.1913   -21731.867   -975.33638    31.953428    39.420965    39.236127     23.73156 
     600    238.87334   -361.31443    216156.16   -20145.699    1513.0766   -21658.776   -959.27055    33.055925    39.420059    39.236983    23.715764 
     800    233.07564   -449.45038    216156.16   -20153.936    1476.3527   -21630.288   -1290.0727    34.126771    39.421337    39.236107    23.715421 
    1000    234.31479   -474.80668    216156.16   -20235.425    1484.2017   -21719.627   -1383.4128    35.394534    39.418184    39.237909    23.742632 
    1200    230.45327   -455.21015    216156.16   -20179.707     1459.742   -21639.449   -1319.8791    35.795667    39.415285    39.238469    23.738634 
    1400    232.14424   -372.70345    216156.16   -20160.281     1470.453   -21630.734   -922.70305    36.342584    39.414523    39.236326     23.74547 
    1600    241.49849   -376.54584    216156.16   -20148.129    1529.7049   -21677.834   -976.71363    37.651102    39.416456    39.236471    23.738039 
    1800    242.47701   -355.07682    216156.16    -20140.72     1535.903   -21676.623    -831.9038    39.057601    39.418585    39.239672    23.750675 
    2000    238.24098   -322.73531    216156.16   -20043.809    1509.0711    -21552.88   -725.92581    40.090481     39.41938    39.240682    23.741381 
    2200    239.08021   -175.35536    216156.16   -20129.009     1514.387   -21643.396    -123.6971    41.534458     39.42193    39.239892    23.724156 
    2400    235.34191   -392.13669    216156.16   -20121.796    1490.7077   -21612.504   -1064.0201    42.205397    39.422574    39.237698    23.721094 
    2600    236.90511   -260.07612    216156.16   -20145.651    1500.6094    -21646.26   -421.26526    43.215077    39.421887    39.236565    23.723953 
    2800    245.88818   -240.03358    216156.16   -20088.839    1557.5101   -21646.349   -365.73667    44.685371    39.421446    39.236718    23.742345 
    3000    243.05583   -250.87781    216156.16   -20133.515    1539.5694   -21673.085   -418.68682    45.991634    39.419676    39.235312      23.7527 
    3200    232.18497    -456.2113    216156.16   -20214.938     1470.711   -21685.649   -1294.7463    47.412195    39.420454    39.233871    23.755703 
    3400    240.47739    -350.9699    216156.16   -20186.096     1523.237   -21709.333   -873.26639     48.23429    39.419818    39.232549    23.747085 
    3600    233.09037   -464.77136    216156.16   -20174.554     1476.446       -21651   -1345.2686     49.46003    39.421328    39.231596    23.746543 
    3800    236.31722   -209.42985    216156.16   -20124.514    1496.8856     -21621.4   -244.16715    50.240448     39.42192    39.231069    23.728818 
    4000    231.08381   -535.34151    216156.16   -20159.652     1463.736   -21623.388   -1640.4463    51.368696    39.423737    39.227372    23.713297 
    4200    237.47163   -273.38047    216156.16   -20131.347    1504.1978   -21635.545   -534.45869    52.832391    39.426242    39.227751    23.705072 
    4400    231.77959   -547.28048    216156.16   -20147.028    1468.1432   -21615.171   -1661.3384    53.347711    39.428138    39.228407    23.717089 
    4600    232.81734   -342.76672    216156.16   -20190.903    1474.7166    -21665.62   -791.27559    54.962021    39.427434    39.229349    23.702955 
    4800    235.61625   -169.37557    216156.16   -20102.043    1492.4455   -21594.488   -85.611663    56.005709    39.428885    39.228871    23.694583 
    5000    228.99184   -222.58769    216156.16   -20147.543     1450.485   -21598.028   -287.84627    57.403471    39.429789    39.230888    23.682691 
    5200    230.42638   -477.48685    216156.16   -20139.741    1459.5717   -21599.313   -1330.7634    58.393591    39.431061    39.230411    23.673236 
    5400    237.74903   -472.95741    216156.16   -20135.294     1505.955   -21641.249   -1389.6643     59.82391    39.431555    39.230787    23.665908 
    5600    234.66924   -329.72022    216156.16   -20150.445    1486.4469   -21636.892   -778.33408    61.002827    39.432264    39.231302    23.666073 
    5800    231.00569   -321.77809    216156.16   -20137.216    1463.2412   -21600.458   -722.81944    63.544529    39.431797     39.23001    23.670625 
    6000    235.33777   -391.26532    216156.16   -20173.727    1490.6815   -21664.408   -1022.0349    65.090392    39.430542    39.229723    23.681053 
    6200    233.26958   -479.23577    216156.16   -20155.362    1477.5812   -21632.944   -1414.3404    66.660512    39.429313    39.228961    23.677058 
    6400     239.5097   -439.17048    216156.16   -20163.725    1517.1074   -21680.832   -1185.8635    68.886933    39.429753    39.229513    23.675542 
    6600    230.48177   -169.86563    216156.16   -20184.473    1459.9225   -21644.396   -93.575804    69.068696    39.430658     39.23032    23.687974 
    6800    232.04586   -450.47746    216156.16    -20182.73    1469.8298   -21652.559   -1313.8496    70.356965    39.432393    39.230433    23.678586 
    7000    231.55688   -308.44508    216156.16   -20136.206    1466.7325   -21602.939   -689.17775    72.208607    39.431009     39.23009    23.688672 
    7200    230.68705   -289.40768    216156.16   -20211.782    1461.2228   -21673.005   -593.57358    73.224661    39.430635    39.229653    23.715853 
    7400    232.59846    -323.5354    216156.16   -20182.487    1473.3301   -21655.817     -758.053    75.664018    39.426801    39.231487    23.733973 
    7600    245.00229   -438.88369    216156.16   -20123.236    1551.8987   -21675.134   -1233.6858    76.738788    39.425586    39.233038    23.754397 
    7800    232.49214    -422.6962    216156.16   -20251.587    1472.6567   -21724.243   -1143.8329     77.70625     39.42549     39.23505    23.747175 
    8000    239.88956   -503.67362    216156.16   -20127.788    1519.5136   -21647.302   -1507.0477    79.281903    39.424835    39.237733    23.739834 
    8200    235.37294   -367.57152    216156.16   -20162.729    1490.9043   -21653.633   -904.72754     80.11801    39.424178     39.23939    23.745429 
    8400    237.50989   -181.53568    216156.16   -20118.334    1504.4402   -21622.774   -99.898893    80.586644    39.424232    39.239875    23.761569 
    8600    234.12506   -515.00278    216156.16   -20177.281         1483   -21660.281   -1551.0007    81.775793    39.427261    39.242235    23.752531 
    8800    233.32161   -425.39324    216156.16    -20224.86    1477.9107    -21702.77   -1197.0465    82.786423    39.428774    39.243615    23.775102 
    9000    236.90518   -467.57365    216156.16   -20208.018    1500.6098   -21708.628   -1341.9659    83.428733    39.430018    39.241425    23.762099 
    9200    241.32602   -249.42672    216156.16   -20145.241    1528.6125   -21673.853   -457.73931    83.926936    39.430654    39.242662    23.768859 
    9400    231.63743   -395.95407    216156.16   -20211.849    1467.2427   -21679.092   -1013.8374    84.701861    39.431041     39.24328    23.758236 
    9600    230.06292   -318.10578    216156.16   -20268.431    1457.2694   -21725.701   -716.79072     85.89933    39.431389    39.242262    23.743476 
    9800    238.70513   -429.23793    216156.16   -20189.405    1512.0112   -21701.416   -1132.3335    87.047203     39.43021    39.243851    23.742615 
   10000    233.28878   -382.36888    216156.16   -20225.979    1477.7028   -21703.682   -1026.8685    86.505701    39.429835    39.244507    23.735536 
   10200     236.9411   -498.01774    216156.16   -20131.849    1500.8374   -21632.687   -1468.5635    87.385958    39.431313     39.24266    23.724658 
   10400    240.14101   -527.72095    216156.16   -20122.474    1521.1063    -21643.58   -1549.5982    88.150269    39.431977     39.24154    23.716613 
   10600    234.62175   -288.11051    216156.16   -20212.455    1486.1461   -21698.601   -539.40252    88.137415    39.433101    39.238851    23.684464 
   10800    229.88032   -452.64859    216156.16   -20274.496    1456.1128   -21730.609   -1247.7145     89.30328    39.434908    39.238908    23.706119 
   11000    229.89978   -361.97156    216156.16    -20230.05    1456.2361   -21686.286    -863.2831    90.271962    39.434115    39.238125    23.721032 
   11200    232.27743   -578.56303    216156.16   -20223.638    1471.2966   -21694.934   -1794.0933    91.578046    39.434018    39.236839     23.71001 
   11400    233.20485   -417.70721    216156.16   -20212.126    1477.1712   -21689.297   -1119.4103    92.854119    39.435472    39.237092     23.70528 
   11600    235.96438   -435.82141    216156.16   -20120.216    1494.6506   -21614.867   -1188.7604      94.2047    39.435486    39.236321    23.699876 
   11800    231.73792   -385.57511    216156.16    -20090.76    1467.8793   -21558.639   -935.31505    95.880905    39.437765    39.236728    23.688479 
   12000    239.79859   -642.50095    216156.16   -20098.104    1518.9374   -21617.041   -2109.1514    96.882199    39.440488    39.235412    23.672386 
   12200    237.72046   -468.53862    216156.16   -20133.606     1505.774    -21639.38   -1339.4516    97.557808    39.444629    39.236352    23.680758 
   12400    235.06277   -427.12318    216156.16   -20164.409    1488.9396   -21653.348   -1149.2819    98.577095    39.444806    39.234863    23.686033 
   12600     240.7748   -514.01024    216156.16   -20115.292    1525.1208   -21640.413   -1546.9755    98.656693    39.444576    39.231756    23.730735 
   12800     230.2727   -359.65839    216156.16   -20172.485    1458.5982   -21631.084    -860.2721    99.218736    39.441661    39.232336    23.738369 
   13000     239.2694   -308.17774    216156.16   -20215.553    1515.5854   -21731.138   -669.52672    100.68838    39.438522    39.230221    23.742892 
   13200    235.15353    -92.15415    216156.16   -20250.104    1489.5145   -21739.619     264.3405    101.34336    39.438482    39.228058    23.737779 
   13400    226.36823   -491.65528    216156.16   -20326.236    1433.8665   -21760.103   -1396.4633    102.51844    39.439431    39.229051    23.758274 
   13600    235.22112    -359.2845    216156.16   -20254.965    1489.9426   -21744.908   -850.26167    104.30672    39.439471    39.227231    23.740231 
   13800    238.66356   -534.77134    216156.16   -20202.743    1511.7478    -21714.49   -1608.4961    104.74726    39.439547    39.227791    23.732946 
   14000    237.97994    -429.4926    216156.16   -20161.863    1507.4176   -21669.281   -1165.7937    105.24816    39.437455    39.226525    23.730964 
   14200    240.05986   -348.15067    216156.16   -20200.341    1520.5923   -21720.934   -802.58779    105.88518    39.437199    39.227243    23.719508 
   14400    230.33177   -464.91857    216156.16   -20257.148    1458.9724   -21716.121   -1337.4041    106.44418    39.438299    39.228359    23.729264 
   14600    231.39218   -334.01283    216156.16   -20267.957    1465.6893   -21733.646   -749.20534    107.38006    39.438662    39.230983    23.717541 
   14800    235.81017   -398.52381    216156.16   -20210.528    1493.6738   -21704.202   -1047.7593    108.86388    39.438404     39.22879    23.713712 
   15000    225.90476   -486.24904    216156.16   -20220.453    1430.9307   -21651.384   -1439.5345    109.91251     39.43701     39.22701    23.696723 
   15200    240.78594   -320.07265    216156.16   -20144.485    1525.1914   -21669.676   -701.01827    110.81354    39.438234    39.229381    23.696504 
   15400    231.54366   -532.97721    216156.16   -20217.022    1466.6488   -21683.671   -1607.4061    111.63562    39.437275    39.230347    23.701531 
   15600    238.02015   -353.46648    216156.16   -20058.562    1507.6723   -21566.234   -836.08568     113.5572    39.436425    39.229438    23.714025 
   15800    234.21413   -509.41176    216156.16   -20112.718    1483.5641   -21596.282    -1530.787    114.62057    39.436568      39.2293    23.725024 
   16000    237.44502   -336.02984    216156.16   -20134.853    1504.0293   -21638.882   -799.24828    115.14842    39.435385    39.228926    23.743713 
   16200    235.07711   -423.76838    216156.16   -20107.055    1489.0304   -21596.085   -1147.4515       116.46    39.436073    39.228112    23.735684 
   16400    237.83302   -311.70745    216156.16     -20139.5     1506.487   -21645.987   -669.95937    118.15227    39.436922    39.226008    23.695357 
   16600    239.88775   -237.41216    216156.16   -20074.762    1519.5021   -21594.264    -356.4835    120.71242    39.437011    39.225175    23.675716 
   16800    235.44119   -246.98812    216156.16   -20158.371    1491.3366   -21649.708   -374.89142    120.45587    39.436263    39.226291    23.655892 
   17000    232.61827   -564.41726    216156.16   -20203.727    1473.4556   -21677.183   -1758.5556    121.88848    39.436253    39.228103    23.629865 
   17200    227.02747   -393.16837    216156.16   -20201.456    1438.0422   -21639.498    -999.8802    122.13974    39.436844    39.230594    23.626427 
   17400    228.92976   -340.52946    216156.16   -20254.397    1450.0918   -21704.488   -793.17739    124.61046    39.438517    39.232054    23.642584 
   17600     231.7034   -337.34446    216156.16   -20190.047    1467.6606   -21657.708   -803.55211    124.64794    39.440019    39.232865    23.678875 
   17800    234.91588   -322.74121    216156.16   -20220.909    1488.0092   -21708.918   -695.70345    126.55587    39.440349    39.233423    23.683627 
   18000    231.40091   -401.18915    216156.16    -20161.86    1465.7446   -21627.604   -1011.0194    127.28928    39.439646    39.236549    23.657356 
   18200    232.61886   -319.94482    216156.16   -20184.713    1473.4594   -21658.172   -714.01859     127.5956    39.440094    39.237959    23.674216 
   18400    232.15678   -386.64778    216156.16   -20138.798    1470.5324    -21609.33   -987.84873    129.97065    39.440817    39.238226    23.667713 
   18600    239.25001   -264.15141    216156.16   -20113.356    1515.4625   -21628.818   -509.15552    130.62187    39.439822    39.238011    23.682034 
   18800    233.13357   -279.66938    216156.16   -20159.298    1476.7196   -21636.018   -556.12264    132.53562    39.439348    39.237619    23.684487 
   19000    239.73794    -303.7737    216156.16   -20100.775    1518.5532   -21619.328   -653.11152    134.59528    39.440975    39.236779    23.694113 
   19200    234.73372   -340.24132    216156.16   -20132.507    1486.8554   -21619.362   -790.45572     136.8656    39.440389    39.238162    23.680102 
   19400    229.81304   -496.14812    216156.16   -20098.916    1455.6867   -21554.602   -1473.1378      137.631     39.43906    39.237989     23.69211 
   19600    235.62885    -266.4238    216156.16   -20114.805    1492.5253   -21607.331   -482.10023    137.17074    39.439863    39.236613    23.686093 
   19800     235.0602   -365.60403    216156.16   -20122.103    1488.9234   -21611.027   -881.95012     138.1176    39.440203    39.235437    23.698902 
   20000    228.38239   -320.37938    216156.16   -20152.243    1446.6246   -21598.868   -728.09642    141.10493    39.441329    39.234222    23.698193 
   20200    228.91873   -326.90043    216156.16   -20220.179    1450.0219   -21670.201   -693.91107    142.60461    39.439445    39.234434    23.693166 
   20400    237.94557   -362.08425    216156.16   -20104.161    1507.1999   -21611.361   -899.10382     143.6933    39.439672    39.234349    23.684834 
   20600    226.97234   -286.40741    216156.16   -20205.709    1437.6931   -21643.402   -587.66052    144.04749    39.440837    39.235039    23.647244 
   20800    237.89466   -281.73811    216156.16   -20125.484    1506.8774   -21632.361   -580.46626    144.48677    39.442424    39.235442    23.619921 
   21000    236.57805   -341.73202    216156.16   -20181.734    1498.5377   -21680.271   -847.67144     146.1996    39.443497    39.233719    23.646889 
   21200    239.59377   -286.07089    216156.16   -20146.965    1517.6399   -21664.605   -564.65107     148.4719    39.443028    39.235185    23.634308 
   21400    235.49365   -431.74917    216156.16   -20170.267    1491.6689   -21661.936   -1214.0168    148.17029    39.442906    39.236629    23.624648 
   21600    239.68499    -531.0109    216156.16    -20081.99    1518.2178   -21600.208   -1627.2835      149.578    39.441978    39.238007    23.627735 
   21800    235.08321   -374.63745    216156.16   -20197.383    1489.0691   -21686.452   -984.37176    149.81038    39.441359     39.23715    23.642437 
   22000    225.90254   -322.22131    216156.16   -20267.124    1430.9167   -21698.041   -737.89967    149.31377     39.44081    39.237219    23.667197 
   22200    225.80852   -322.66258    216156.16   -20288.048    1430.3211   -21718.369   -725.15808    150.21872     39.44144    39.235839    23.661075 
   22400    235.60539   -401.40112    216156.16   -20134.354    1492.3767   -21626.731   -1119.8144    151.62644    39.441423    39.236127    23.682808 
   22600    233.67979   -277.01163    216156.16   -20140.701    1480.1795    -21620.88   -544.17173    153.19738    39.438237    39.235837     23.67011 
   22800    237.27793   -489.20758    216156.16   -20105.901     1502.971   -21608.872    -1427.538    153.70285    39.438428    39.235487    23.684851 
   23000    229.86051   -228.95545    216156.16   -20156.219    1455.9873   -21612.206   -355.02352    154.86584    39.437719    39.235715    23.691615 
   23200    231.45374   -395.21615    216156.16   -20086.397    1466.0792   -21552.476   -1023.9812    157.12594    39.439667    39.235227     23.66435 
   23400     235.2074   -405.86223    216156.16   -20124.818    1489.8558   -21614.674   -1098.6222    159.49943     39.43819    39.235998    23.674536 
   23600    234.98514   -316.79479    216156.16   -20087.878    1488.4479   -21576.326   -711.84136    159.59836    39.437422    39.235026    23.678625 
   23800    236.54145   -264.13561    216156.16   -20118.103    1498.3059   -21616.409   -452.94063    160.53354    39.436908    39.235331    23.692133 
   24000     235.5237   -352.82413    216156.16   -20178.066    1491.8592   -21669.925   -846.50344    163.32781    39.434923    39.233779    23.681377 
   24200     232.0837   -548.81779    216156.16   -20162.795    1470.0695   -21632.865   -1702.6723    163.93536    39.433065     39.23197    23.669064 
   24400    236.12579   -356.38113    216156.16   -20203.802     1495.673   -21699.476   -865.98534    164.22541    39.433629    39.233136    23.667097 
   24600    229.08893   -406.39112    216156.16   -20221.153       1451.1   -21672.253   -1124.6835    167.49675    39.437625    39.235198    23.663144 
   24800    229.12095   -464.22487    216156.16   -20205.635    1451.3028   -21656.938    -1333.209    166.87349    39.438906       39.236    23.646283 
   25000    229.87255   -467.88158    216156.16   -20209.369    1456.0636   -21665.433   -1363.0806    167.13732    39.438442    39.237725    23.637873 
   25200    226.79045   -317.00465    216156.16   -20327.715    1436.5409   -21764.256    -690.9285    168.72205    39.438921     39.23703    23.632746 
   25400    242.61494   -390.31209    216156.16   -20184.168    1536.7767   -21720.945   -1000.7424    169.43994    39.438275    39.236807    23.621638 
   25600    241.64459   -510.57931    216156.16   -20057.155    1530.6304   -21587.785    -1512.612     170.4083    39.440312    39.234487    23.639403 
   25800    244.01907    -345.4317    216156.16   -20103.138    1545.6708   -21648.809    -816.7389    171.50066    39.441268    39.233425    23.645337 
   26000    235.92939   -420.29315    216156.16   -20145.086     1494.429   -21639.515   -1134.3243    171.83255    39.443643    39.234285    23.641633 
   26200    236.65907   -448.42196    216156.16   -20156.991    1499.0509   -21656.042   -1262.8394      171.534      39.4452    39.235199    23.652288 
   26400    231.62756   -502.28053    216156.16   -20207.411    1467.1802   -21674.591   -1487.1961    174.33385    39.444536    39.236309    23.656211 
   26600    237.17721   -370.69482    216156.16   -20091.478    1502.3329   -21593.811   -936.76043    173.69602    39.445167    39.239682    23.651208 
   26800    236.78285    -346.1209    216156.16   -20169.664     1499.835   -21669.499    -798.4168    174.14874    39.444122     39.24226    23.662594 
   27000    242.05826   -344.56864    216156.16   -20123.189    1533.2506    -21656.44   -795.55807    176.78071    39.444418    39.242537    23.660668 
   27200    233.10316   -387.04057    216156.16   -20179.565     1476.527   -21656.093   -1020.8466    178.74262     39.44393    39.242756    23.656623 
   27400    243.38932   -365.38072    216156.16   -20160.611    1541.6819   -21702.293   -843.88084    179.99269    39.444702    39.242063    23.669039 
   27600    232.94297   -326.35404    216156.16   -20276.718    1475.5123    -21752.23   -773.07088    181.10475    39.447973    39.242822     23.67451 
   27800     240.8568   -183.32098    216156.16    -20160.82    1525.6403    -21686.46   -95.746876    182.21985    39.447893    39.242382    23.676755 
   28000      231.056   -349.40152    216156.16   -20281.444    1463.5598   -21745.004   -808.15787    183.00023     39.45113    39.239204    23.668726 
   28200    232.22035   -441.79372    216156.16   -20257.075    1470.9351    -21728.01   -1208.9552    184.22489     39.45124    39.237524    23.671876 
   28400    232.07554   -250.14569    216156.16    -20221.06    1470.0179   -21691.078   -375.85631    184.70331    39.451257    39.238912    23.661275 
   28600    232.44413   -393.60257    216156.16   -20215.624    1472.3525   -21687.977   -1034.5266    184.83288     39.45403    39.238208    23.643955 
   28800    228.53461   -495.52654    216156.16   -20215.485    1447.5888   -21663.074   -1440.9392    186.54376     39.45354    39.239091    23.619884 
   29000    232.65542   -472.14627    216156.16   -20175.776    1473.6909   -21649.466   -1353.9616     187.5876    39.452749    39.237168    23.613044 
   29200    236.65035   -280.56745    216156.16   -20154.548    1498.9957   -21653.544   -524.04218    189.52299    39.454276    39.237383    23.629774 
   29400    243.20392   -362.14004    216156.16    -20180.33    1540.5075   -21720.837   -843.97644    188.58957    39.455069    39.235841    23.616664 
   29600    232.50927   -238.75251    216156.16   -20151.177    1472.7652   -21623.942   -367.81668    188.68768    39.455538    39.236252    23.633524 
   29800    229.58421   -486.12032    216156.16   -20239.217    1454.2372   -21693.454   -1421.2795    191.05373    39.453026    39.235373    23.636836 
   30000    228.78918   -395.60841    216156.16   -20302.292    1449.2013   -21751.494   -1013.4135    191.93659    39.453023    39.236143     23.61704 
   30200    234.67087   -637.04475    216156.16   -20249.709    1486.4572   -21736.166   -2065.2958    194.23934    39.454335    39.234789    23.607022 
   30400    232.22458   -435.92667    216156.16   -20239.166    1470.9619   -21710.128   -1218.2089    196.13752    39.453425    39.234816    23.614541 
   30600    230.90189   -523.60786    216156.16   -20272.254    1462.5837   -21734.837   -1546.0216    196.64228    39.451623    39.235029    23.613797 
   30800    234.92036   -468.62816    216156.16   -20221.801    1488.0376   -21709.838   -1336.6271    197.31392    39.451512    39.235877    23.607701 
   31000    240.54368   -496.12645    216156.16   -20228.114    1523.6569   -21751.771    -1456.662    197.21617    39.450435    39.236065    23.606963 
   31200    241.20181   -266.41987    216156.16   -20203.016    1527.8257   -21730.841   -471.12856     196.6585    39.450467    39.236593    23.599639 
   31400      233.665    -568.2378    216156.16    -20199.53    1480.0859   -21679.616   -1729.5657    198.84026     39.45035    39.237456    23.601043 
   31600    238.41876   -425.41774    216156.16   -20269.935    1510.1972   -21780.132   -1169.3629    197.78892    39.449369    39.240372    23.602339 
   31800     234.2383   -386.29617    216156.16   -20203.061    1483.7172   -21686.778   -957.75183    197.81167    39.449712    39.240539    23.610208 
   32000    225.94037   -392.59639    216156.16   -20266.484    1431.1563   -21697.641   -983.93035    199.43236    39.450525    39.240281    23.629819 
   32200    228.85341    -387.1002    216156.16   -20270.504    1449.6081   -21720.112   -1000.2369    201.21491    39.450198     39.24065     23.63945 
   32400    227.37264   -370.37706    216156.16    -20281.71    1440.2286   -21721.939   -920.85294    201.62369    39.451204    39.241972    23.654743 
   32600     236.6602   -296.20685    216156.16   -20216.486    1499.0581   -21715.544   -630.04923    201.23315    39.449969    39.238907    23.664243 
   32800     240.4659   -379.97763    216156.16   -20210.997    1523.1643   -21734.161   -971.44694    203.21427    39.452663     39.23734    23.650891 
   33000    237.33588   -554.89948    216156.16   -20186.188     1503.338   -21689.526   -1702.2994    205.74287     39.45535    39.235039    23.659388 
   33200    235.40523   -445.22562    216156.16   -20203.194    1491.1088   -21694.303    -1216.506    206.98682    39.455141    39.236282    23.667689 
   33400    233.32406   -431.16098    216156.16   -20237.304    1477.9263    -21715.23   -1168.3755    207.19498    39.454994    39.237738    23.657074 
   33600     232.4735   -321.19854    216156.16   -20239.065    1472.5386   -21711.603   -749.23953    208.41588    39.453825    39.239287    23.649604 
   33800    242.92702   -322.06012    216156.16    -20085.71    1538.7535   -21624.463   -753.70463    208.49102    39.453797    39.240673    23.660632 
   34000    229.73724   -357.31314    216156.16   -20203.643    1455.2066    -21658.85   -821.21101    209.73892    39.451691    39.241245    23.668305 
   34200    231.63217   -492.71408    216156.16   -20205.992    1467.2095   -21673.202   -1416.7019    211.29601     39.45218     39.24041    23.666925 
   34400    226.11471   -194.61342    216156.16   -20228.291    1432.2606   -21660.551   -199.23204    211.31222    39.451542    39.240062     23.66323 
   34600    236.88806   -450.83368    216156.16   -20067.183    1500.5014   -21567.684   -1287.1975      211.689    39.451737    39.241656    23.664527 
   34800     230.1932   -387.12486    216156.16   -20177.033    1458.0947   -21635.128   -1021.9306    211.36459    39.452914    39.242982    23.656704 
   35000    230.94509    -452.2129    216156.16   -20168.947    1462.8573   -21631.804   -1289.3543    212.44923    39.451408    39.245763    23.651314 
   35200    241.04698   -287.53128    216156.16   -20091.273     1526.845   -21618.118    -584.2962    214.15726    39.449522    39.246585    23.649158 
   35400    234.62492   -396.44285    216156.16   -20095.883    1486.1662   -21582.049   -1039.5471    217.02497    39.448054    39.248264    23.668223 
   35600    234.44056   -328.87271    216156.16    -20105.02    1484.9984   -21590.018   -804.11295    219.08229    39.445961    39.250449    23.683394 
   35800    241.39515   -365.38205    216156.16   -20054.034    1529.0503   -21583.084    -947.1494    220.71616     39.44833    39.251216    23.684805 
   36000    232.16866   -358.32077    216156.16   -20177.678    1470.6077   -21648.285   -868.71018    220.43069    39.450691    39.251759     23.70037 
   36200    234.63721   -362.49918    216156.16    -20185.89     1486.244   -21672.134   -911.06496     224.2739    39.450779    39.253327    23.700818 
   36400    240.41647   -306.85357    216156.16   -20145.824    1522.8511   -21668.675    -673.1949    225.05748    39.451449    39.256838    23.746518 
   36600    233.88756   -361.40147    216156.16   -20145.052    1481.4956   -21626.547   -927.02266    223.96696    39.452822    39.256285    23.731094 
   36800    231.44278   -275.25734    216156.16     -20171.3    1466.0098   -21637.309   -535.49235     224.8672    39.453988    39.257782    23.725255 
   37000    233.03916   -451.12359    216156.16   -20173.248    1476.1216   -21649.369   -1253.0252    227.29521    39.452736    39.259506    23.740753 
   37200    231.17839   -277.74382    216156.16   -20195.006    1464.3351   -21659.341   -528.67515    227.27811    39.452293    39.259601    23.706054 
   37400    231.60186   -356.17755    216156.16   -20189.235    1467.0174   -21656.252   -834.97699    229.72755    39.452448    39.259778    23.689795 
   37600    223.79924    -410.1856    216156.16   -20191.067    1417.5939   -21608.661   -1069.1178    230.23323    39.450211    39.258777    23.682737 
   37800    230.21664    -376.5704    216156.16   -20254.159    1458.2432   -21712.402   -937.09282    231.19402    39.447981    39.258383    23.672361 
   38000    237.89035   -433.02009    216156.16   -20188.642    1506.8501   -21695.492   -1203.3408    232.87138    39.448341    39.258772    23.676433 
   38200    232.16659   -413.24226    216156.16   -20186.659    1470.5945   -21657.253   -1080.7945    234.67056    39.448937    39.257876    23.662431 
   38400     243.6822   -367.89183    216156.16   -20139.871     1543.537   -21683.408    -899.6891    234.55433    39.448594    39.259047    23.673808 
   38600    236.01836   -377.39088    216156.16   -20191.321    1494.9925   -21686.314   -926.64486    236.74606    39.449575     39.26209    23.682777 
   38800    237.44686   -291.01371    216156.16   -20168.154     1504.041   -21672.195   -581.23271    238.21397    39.449578    39.264966    23.701425 
   39000    237.82739   -523.09835    216156.16   -20144.783    1506.4514   -21651.235    -1557.756    239.65847    39.450493    39.265427    23.699737 
   39200    232.18561   -363.73357    216156.16   -20240.625    1470.7151    -21711.34   -878.81433     241.2213    39.451366    39.267869    23.705285 
   39400    233.72238    -316.8348    216156.16   -20207.459    1480.4493   -21687.908   -713.39043    242.48083    39.452098    39.269762    23.700862 
   39600    236.44455   -410.14264    216156.16   -20171.439    1497.6921   -21669.131   -1084.9132    243.88421    39.454199    39.272384    23.697925 
   39800     232.7765    -366.8589    216156.16   -20215.357    1474.4579   -21689.815   -924.64346    242.83395    39.454557    39.273258    23.717521 
   40000     236.6264    -332.8805    216156.16   -20169.792     1498.844   -21668.636   -736.19089    247.03839    39.456578    39.274039    23.702027 
   40200    236.81362   -167.85799    216156.16   -20177.105    1500.0299   -21677.135    -36.35332    246.61681    39.455403    39.272512     23.69982 
   40400    227.07572   -321.71886    216156.16   -20207.742    1438.3479    -21646.09   -701.20183    246.35959    39.455236    39.270857    23.690432 
   40600    235.70532   -296.04755    216156.16   -20115.888    1493.0097   -21608.898   -626.11319     245.1551    39.454985    39.271565    23.687111 
   40800     234.8358   -577.53645    216156.16   -20216.199    1487.5019   -21703.701   -1800.9641    245.46681    39.454593    39.270736    23.690297 
   41000    227.34734   -394.86115    216156.16   -20189.468    1440.0684   -21629.537   -1017.1722    245.15704    39.455145    39.272923    23.693523 
   41200    238.59685   -413.46524    216156.16   -20107.397    1511.3253   -21618.722   -1105.5642    246.78479    39.456166    39.273902    23.681537 
   41400    236.17984   -442.91402    216156.16   -20186.538    1496.0154   -21682.553   -1212.2872     249.2807    39.453174    39.273819    23.685525 
   41600    236.76172   -401.52927    216156.16   -20203.822    1499.7011   -21703.523   -1106.4428    249.59601    39.452278    39.275937    23.691091 
   41800    234.68752   -340.96406    216156.16   -20197.438    1486.5627   -21684.001   -827.37071    250.88967    39.450009    39.275277     23.69637 
   42000     236.4754   -290.92165    216156.16   -20205.428    1497.8875   -21703.316   -658.94175    249.82801    39.447024    39.276433    23.718581 
   42200    236.19461   -309.36524    216156.16   -20245.197    1496.1089   -21741.306   -662.85189    250.20103    39.446899    39.280736    23.736401 
   42400    235.18855   -349.40561    216156.16   -20182.921    1489.7363   -21672.657   -798.23355    250.68171     39.44916    39.280921    23.760508 
   42600    232.82563   -386.23334    216156.16    -20217.88    1474.7691   -21692.649   -995.16546    252.64355    39.448826    39.281747    23.759388 
   42800    231.42344   -371.77821    216156.16   -20182.681    1465.8873   -21648.568   -910.18962    255.05101    39.448378    39.283494    23.768565 
   43000    232.11819   -330.95101    216156.16   -20187.986     1470.288   -21658.274   -785.42103    256.30952    39.449037    39.282923    23.785452 
   43200    235.27202   -320.61826    216156.16   -20199.094    1490.2651   -21689.359   -724.19981    257.06439     39.44754    39.283807    23.764416 
   43400    238.31035   -424.50728    216156.16   -20196.749    1509.5105   -21706.259    -1136.436    256.69689    39.448651    39.281977    23.745831 
   43600    237.47406   -467.64305    216156.16   -20229.845    1504.2132   -21734.058    -1309.552    258.01123    39.448208    39.283259     23.74099 
   43800    225.91993   -457.23777    216156.16   -20250.642    1431.0268   -21681.669   -1272.5719    258.92005    39.447121    39.283958    23.747776 
   44000     230.9666   -430.48414    216156.16    -20272.52    1462.9936   -21735.513   -1144.0827     257.7112    39.446266    39.286285    23.737393 
   44200    232.93281   -324.56786    216156.16   -20227.829     1475.448   -21703.277   -740.67446    259.04364    39.445533    39.284983    23.736808 
   44400    229.91275   -481.16134    216156.16   -20235.393    1456.3182   -21691.712   -1386.9732    260.34627    39.448135     39.28289    23.749821 
   44600    233.19967   -521.43298    216156.16   -20258.372    1477.1383    -21735.51    -1616.814    261.61485     39.44683    39.281155    23.764476 
   44800    228.47441    -338.5276    216156.16   -20264.567    1447.2075   -21711.774   -824.26622    262.61081    39.443953    39.279998     23.77057 
   45000    238.87672    -339.1207    216156.16   -20235.455     1513.098   -21748.553   -754.34862    265.06759    39.441683    39.278952    23.763595 
   45200    234.51074   -520.26013    216156.16   -20188.219    1485.4429   -21673.662   -1565.7529    265.80032    39.440445    39.281343    23.747312 
   45400    227.94786   -459.14212    216156.16   -20243.726    1443.8722   -21687.598   -1293.2444    265.53649    39.441223    39.283095     23.72063 
   45600    233.75916   -477.92136    216156.16   -20148.551    1480.6823   -21629.234   -1346.0017    267.47012    39.440872    39.284291    23.710348 
   45800    232.45069   -288.32667    216156.16   -20200.326    1472.3941    -21672.72    -584.3569    267.76379    39.440444    39.283424    23.726056 
   46000    235.29671   -496.84383    216156.16   -20134.765    1490.4215   -21625.186   -1469.1913    268.04799    39.439224    39.281966    23.728607 
   46200    244.43506   -403.44791    216156.16   -20129.356    1548.3058   -21677.662    -1083.396    267.91354     39.44109     39.28345    23.731895 
   46400    235.95115   -307.23131    216156.16   -20210.435    1494.5668   -21705.002   -652.58416    268.31567    39.439118    39.283038    23.713259 
   46600    232.80164   -507.64765    216156.16   -20213.169    1474.6171   -21687.786   -1476.6183    267.86284    39.438529    39.283668    23.669786 
   46800    234.64797   -312.24339    216156.16   -20197.194    1486.3122   -21683.507   -648.43559    268.96367    39.437073    39.283529    23.674036 
   47000    237.36009   -370.29322    216156.16   -20172.621    1503.4913   -21676.112   -956.91582    269.32693    39.437543    39.283711     23.67848 
   47200    231.61458   -604.92309    216156.16   -20243.301     1467.098   -21710.399   -1945.2835    271.17907    39.439272    39.282471    23.644555 
   47400    227.72215   -401.51475    216156.16   -20191.822    1442.4425   -21634.265   -1026.8126    272.53817    39.438181    39.283755    23.653148 
   47600     239.5374   -367.72291    216156.16   -20198.581    1517.2829   -21715.863   -886.88197    273.52397    39.437515     39.28326    23.652036 
   47800    229.23531   -330.28383    216156.16   -20181.722    1452.0272   -21633.749   -733.46186    276.35616    39.434703    39.284857    23.641479 
   48000    236.22269   -372.83492    216156.16   -20174.144    1496.2868    -21670.43   -939.59958    275.74977    39.434808    39.284055      23.6423 
   48200    236.22927   -408.25617    216156.16   -20203.496    1496.3285   -21699.824   -1073.1594    277.08298    39.434803    39.282592    23.670609 
   48400    235.79996   -173.47384    216156.16   -20187.523    1493.6091   -21681.132   -103.26903    277.26743    39.432918    39.281867    23.678699 
   48600    226.80593   -375.74446    216156.16   -20226.824     1436.639   -21663.463   -934.48079    276.98383    39.429817     39.28393    23.682263 
   48800    234.93857   -386.57064    216156.16   -20190.762    1488.1529   -21678.915   -957.36333    279.01625    39.428575    39.286992    23.688216 
   49000    234.18757   -349.23529    216156.16     -20177.5    1483.3959   -21660.896   -842.88034    280.47917    39.426746    39.286328    23.694322 
   49200     235.4752   -449.92617    216156.16   -20131.718    1491.5521    -21623.27   -1208.6892    282.55965    39.426695    39.286717    23.708392 
   49400    229.95958   -567.94849    216156.16   -20226.672    1456.6149   -21683.287   -1752.9647    283.08235    39.424832    39.283122    23.715984 
   49600    237.09204   -178.98488    216156.16   -20228.407    1501.7935   -21730.201   -89.455881    284.59418    39.423666    39.282393    23.722479 
   49800    234.42107   -531.05745    216156.16   -20227.099     1484.875   -21711.974   -1586.5929    285.61157    39.424373    39.280308     23.71203 
   50000     234.7227   -380.28249    216156.16   -20227.803    1486.7855   -21714.588   -931.59958     287.8676    39.423568     39.27958    23.691361 
   50200    243.15294   -244.34142    216156.16   -20162.039    1540.1846   -21702.223    -346.6478    292.13853    39.419941    39.278943    23.682128 
   50400    236.32458   -246.29512    216156.16   -20197.268    1496.9322   -21694.201   -427.06766    291.98673    39.420359     39.27895    23.676516 
   50600    248.33318   -227.83749    216156.16   -20086.327    1572.9973   -21659.325   -309.87425    292.66517    39.421204    39.278132    23.667845 
   50800    229.26209   -371.35018    216156.16    -20283.76    1452.1968   -21735.957   -881.81325    293.77378     39.41913    39.278789    23.659251 
   51000    232.29742   -368.04717    216156.16   -20263.101    1471.4233   -21734.525   -872.65206    293.36496    39.416766    39.277117    23.686287 
   51200    228.60928   -566.03712    216156.16   -20234.113    1448.0618   -21682.175   -1708.7589    294.62361    39.416664    39.281125    23.718533 
   51400    234.10536   -413.83311    216156.16   -20219.453    1482.8752   -21702.328   -1129.7848     295.7683    39.415707    39.280932    23.707247 
   51600    232.94494   -437.48924    216156.16   -20229.281    1475.5248   -21704.806   -1228.4441    296.01603    39.416777    39.282009    23.709507 
   51800    231.96519    -286.0527    216156.16   -20190.685    1469.3189   -21660.004   -530.89452    295.47254    39.417145    39.281814    23.718933 
   52000    229.60353   -574.47024    216156.16   -20239.242    1454.3596   -21693.601   -1807.1009    295.87597    39.419788    39.280079    23.724094 
   52200    229.48342   -295.47374    216156.16   -20251.324    1453.5988   -21704.923   -581.67065    296.07597    39.420067    39.282056    23.721025 
   52400    231.99757   -417.59036    216156.16   -20295.443     1469.524   -21764.967   -1095.3802    297.03706    39.417632    39.283154    23.718335 
   52600    237.51712   -264.11691    216156.16   -20163.723     1504.486   -21668.209   -482.51535    298.05935    39.415421    39.281826    23.712169 
   52800    235.77867   -541.32995    216156.16   -20099.297    1493.4743   -21592.771   -1688.9687    299.68545    39.415491    39.279206    23.692306 
   53000    236.78386   -394.40334    216156.16   -20104.001    1499.8414   -21603.842   -1000.2593     299.4925    39.414661    39.278147    23.687737 
   53200    228.93731   -327.16799    216156.16   -20203.276    1450.1396   -21653.416   -774.82448    301.32463    39.414482    39.279138     23.66906 
   53400    230.62523   -247.89974    216156.16   -20191.282    1460.8313   -21652.113   -367.24586    302.42815    39.414586    39.280292    23.667772 
   53600    226.96534   -332.29156    216156.16    -20222.53    1437.6487   -21660.179   -722.70375    302.31847     39.41444    39.279641    23.697635 
   53800    229.27884   -240.39696    216156.16   -20158.314    1452.3029   -21610.616   -341.70468    304.09922    39.413583    39.281213    23.699136 
   54000    235.43315   -553.24622    216156.16   -20161.648    1491.2857   -21652.934   -1693.1096    306.39127    39.413614    39.282906    23.678809 
   54200    243.08269   -329.13399    216156.16   -20129.806    1539.7395   -21669.546   -704.20632    305.74887    39.411144    39.282292    23.680545 
   54400    242.84277   -341.43849    216156.16   -20098.204    1538.2199   -21636.424   -835.52937    304.81256    39.410587      39.2813    23.705305 
   54600    234.59404   -503.57524    216156.16   -20127.096    1485.9706   -21613.067   -1502.4485    304.56068    39.412622    39.283875     23.70899 
   54800    232.77564   -410.21251    216156.16   -20120.205    1474.4524   -21594.657   -1086.0083    305.02222    39.413163    39.284831    23.737085 
   55000    246.02064   -394.78106    216156.16   -20102.573    1558.3492   -21660.922   -957.53697    306.03356    39.416362    39.284293    23.720575 
   55200     228.9923   -412.99974    216156.16   -20218.399    1450.4879   -21668.887   -1114.6573    306.32372     39.40981    39.287075    23.745072 
   55400    227.94008     -246.734    216156.16   -20146.465    1443.8229   -21590.288   -390.52839    308.44422    39.408213    39.288291    23.762613 
   55600    237.97469   -496.69249    216156.16   -20132.625    1507.3844   -21640.009   -1441.9077    310.18936     39.40766    39.287049    23.742135 
   55800    239.12736   -381.17068    216156.16   -20035.974    1514.6856    -21550.66   -927.60208    312.33451    39.410972    39.287334    23.702171 
   56000    237.12201   -405.58021    216156.16   -20121.045    1501.9833   -21623.028   -1082.2202    312.48825     39.40956    39.288553    23.697249 
   56200    241.08822   -372.57393    216156.16   -20111.532    1527.1062   -21638.638   -927.22326    313.35907    39.409286      39.2889    23.701672 
   56400    233.92011   -451.80823    216156.16   -20209.821    1481.7018   -21691.522   -1283.2281    311.99331    39.409828    39.290485    23.709883 
   56600    229.41447   -283.82282    216156.16   -20268.525    1453.1621   -21721.687   -516.29637    312.86475    39.411049    39.290595    23.718879 
   56800    242.91952   -304.72969    216156.16   -20193.927     1538.706   -21732.633   -615.71511    315.25644    39.411197    39.292425    23.723133 
   57000    233.58387   -512.29154    216156.16   -20289.254    1479.5719   -21768.826   -1473.6485    318.41386     39.40934    39.292374    23.697735 
   57200     243.2621   -324.27956    216156.16   -20182.397     1540.876   -21723.273   -715.24996    318.39864    39.410236    39.294661    23.683129 
   57400    232.94891   -307.10466    216156.16   -20244.822      1475.55   -21720.372   -680.80712    319.40357     39.41272    39.298452    23.683883 
   57600    229.34683   -273.72373    216156.16   -20267.835    1452.7336   -21720.569   -498.56166    320.37106    39.413317    39.297658    23.686235 
   57800    235.24334   -438.33373    216156.16   -20214.824    1490.0834   -21704.908   -1190.0996    321.82427    39.412354    39.297059    23.687164 
   58000    235.46481   -416.98226    216156.16   -20212.874    1491.4862   -21704.361   -1089.6721    322.72096    39.410345    39.299118    23.697449 
   58200    236.25111   -279.28177    216156.16   -20188.265    1496.4668   -21684.731   -489.22052    323.36706    39.408269    39.300114    23.689951 
   58400    239.83766   -301.29423    216156.16   -20189.724    1519.1848   -21708.909   -622.03331     324.1142    39.410842    39.300641    23.698998 
   58600    234.69985   -382.37949    216156.16   -20206.128    1486.6408   -21692.769    -954.6781    325.83552    39.410632    39.298412    23.701804 
   58800    234.32501   -413.98988    216156.16   -20185.889    1484.2665   -21670.156   -1052.9763    325.89649    39.410291    39.298924    23.695333 
   59000    233.34143    -213.3664    216156.16   -20094.129    1478.0362   -21572.165   -214.79325    326.41806    39.410597    39.298132    23.681352 
   59200    226.83017   -125.42304    216156.16   -20174.794    1436.7925   -21611.586    137.76841     327.6683    39.411032    39.299659    23.666235 
   59400    232.64398   -358.81909    216156.16   -20222.299    1473.6185   -21695.918    -842.5771    329.09817    39.409048    39.300758     23.68013 
   59600    231.82654   -411.90349    216156.16   -20258.037    1468.4407   -21726.478   -1085.1021    328.52129    39.406256    39.300998    23.679713 
   59800    233.11461   -204.98104    216156.16   -20202.685    1476.5996   -21679.284   -126.47804    328.81298    39.404609    39.300341    23.660356 
   60000    233.04327   -253.45486    216156.16   -20185.991    1476.1476   -21662.139   -469.74144    329.35741    39.402031    39.297932    23.667327 
   60200     229.2947   -510.32321    216156.16   -20219.806    1452.4034   -21672.209   -1506.8857    329.43245    39.400975    39.296941    23.679346 
   60400    240.42872      -417.89    216156.16   -20208.591    1522.9288   -21731.519   -1144.5314    326.79142    39.403075    39.300195     23.68899 
   60600    241.59678    -285.5753    216156.16   -20159.124    1530.3275   -21689.451    -557.6816    325.98515    39.403445     39.29891     23.68739 
   60800    243.31462   -289.71567    216156.16    -20094.47    1541.2087   -21635.679   -592.96441     326.7993    39.404152    39.300269     23.67924 
   61000    227.34452   -457.68361    216156.16   -20156.247    1440.0505   -21596.297   -1312.1764    328.12177    39.402707    39.299165    23.690852 
   61200    236.14479   -558.06134    216156.16   -20070.537    1495.7933   -21566.331   -1686.9125    329.96235    39.403043    39.300205    23.723689 
   61400    234.04599   -561.69987    216156.16   -20113.279    1482.4991   -21595.779   -1776.5808    331.38953    39.403392    39.300727    23.741782 
   61600    236.08763   -395.55269    216156.16   -20178.418    1495.4313    -21673.85   -1076.1092    330.52786    39.402858    39.302688    23.732613 
   61800    232.82934   -548.14668    216156.16   -20227.168    1474.7926   -21701.961   -1699.2353     331.1964    39.401608    39.303808     23.72725 
   62000    233.78058   -377.04203    216156.16   -20164.191    1480.8179   -21645.009   -929.04482     333.5825    39.400632    39.303506    23.731378 
   62200    236.99694   -190.44094    216156.16   -20154.985    1501.1911   -21656.176   -188.44702    333.84972    39.401198    39.301876    23.728771 
   62400    233.30422   -394.15125    216156.16   -20144.097    1477.8006   -21621.898   -1091.8222    336.77682    39.403338    39.301939    23.723786 
   62600     230.0664   -463.46012    216156.16   -20181.325    1457.2915   -21638.616   -1331.0456    339.37329    39.403555    39.300741    23.763099 
   62800     229.2946   -394.29795    216156.16   -20271.826    1452.4027   -21724.229   -1004.9294    339.58052    39.405367    39.301805    23.772981 
   63000    237.06096   -487.91703    216156.16    -20202.02    1501.5966   -21703.616   -1387.4674    340.70159    39.405649    39.300425    23.779192 
   63200    233.69007   -507.01029    216156.16   -20204.189    1480.2446   -21684.434    -1531.207    342.24906    39.405702    39.302043    23.766878 
   63400    230.05812   -327.02582    216156.16   -20248.736     1457.239   -21705.975   -796.49613    342.47424    39.405321    39.302718    23.786288 
   63600     235.6431   -363.94411    216156.16    -20248.05    1492.6156   -21740.665   -947.94598    343.38101    39.406128    39.304937    23.784829 
   63800    224.87568   -449.38463    216156.16   -20267.944    1424.4123   -21692.356   -1265.5635    346.49846    39.403842    39.304693    23.798434 
   64000    228.42791   -500.18781    216156.16   -20122.957    1446.9129    -21569.87   -1507.0188    345.49492    39.402144    39.306495    23.799056 
   64200    234.95283   -453.51981    216156.16   -20113.279    1488.2432   -21601.522   -1318.2435    345.44431    39.403297    39.307654    23.812356 
   64400    236.74414   -437.10975    216156.16   -20130.584    1499.5898   -21630.174   -1242.1957    347.35132    39.399773     39.30796     23.80488 
   64600    228.73734   -338.22579    216156.16   -20177.381    1448.8729   -21626.254   -779.65475    346.97611    39.403203     39.31013    23.784723 
   64800    229.45298   -497.97565    216156.16    -20144.86    1453.4059   -21598.266   -1483.9643    348.22876    39.400925    39.308352    23.774953 
   65000    240.90397   -376.32531    216156.16   -20095.423    1525.9391   -21621.362   -956.45307    349.93873    39.399933    39.306384      23.7646 
   65200    234.34979   -417.97296    216156.16   -20132.465    1484.4234   -21616.888   -1157.1006    352.61167    39.400077    39.304576    23.744372 
   65400    238.72665   -439.89855    216156.16   -20155.243    1512.1475    -21667.39   -1265.0586    354.30839    39.397964    39.304412     23.73665 
   65600    237.73316   -539.88151    216156.16   -20110.253    1505.8545   -21616.108   -1642.6199    355.08423    39.397136    39.303835    23.750684 
   65800    237.74961    -95.31257    216156.16   -20158.752    1505.9586   -21664.711    230.14365      357.128    39.397018    39.303217    23.746728 
   66000    239.93253   -364.78496    216156.16    -20178.59    1519.7857   -21698.375   -943.36523    357.66358    39.398444    39.303958    23.703226 
   66200    230.83702   -460.62878    216156.16   -20246.702    1462.1728   -21708.875   -1335.1885    358.78569     39.39848    39.303269     23.67754 
   66400    229.44251   -429.04647    216156.16   -20229.744    1453.3396   -21683.084   -1204.0546     358.8811    39.399284    39.303129    23.650988 
   66600    227.95637   -250.89464    216156.16   -20259.405    1443.9261   -21703.331   -465.53361    358.77182    39.400297    39.302457    23.645338 
   66800    226.45864   -526.08351    216156.16   -20263.654    1434.4392   -21698.093   -1600.4506     359.3142    39.396886    39.301161    23.659289 
   67000    230.41669   -327.93916    216156.16   -20320.016    1459.5103   -21779.526   -740.35298     359.7392    39.397943    39.301341    23.678754 
   67200    226.49479   -329.54629    216156.16   -20250.912    1434.6681    -21685.58   -739.33789    361.55831    39.395185     39.30453    23.668374 
   67400    229.82848   -394.02924    216156.16   -20180.346    1455.7845   -21636.131   -1064.4158     364.6394    39.395445    39.304858    23.671078 
   67600    237.55535   -488.07987    216156.16   -20133.034    1504.7282   -21637.762     -1395.44    365.26818    39.394404    39.303731    23.683608 
   67800    235.43875    -525.7172    216156.16   -20191.457    1491.3212   -21682.778   -1570.1154    365.29675    39.394665    39.304522    23.688936 
   68000    235.14557   -418.10151    216156.16   -20259.781    1489.4641   -21749.245    -1141.028    367.37651    39.394348    39.306139    23.710504 
   68200     231.6781   -311.60162    216156.16   -20258.169    1467.5004   -21725.669   -668.87494    369.15969    39.393757    39.306252    23.713545 
   68400     238.0226     -365.096    216156.16   -20191.389    1507.6878   -21699.077   -914.29254    367.39637    39.394833    39.306585    23.696872 
   68600    236.31272   -527.11956    216156.16    -20212.86    1496.8571   -21709.717   -1603.6441    367.12679    39.395239    39.305082    23.704169 
   68800    240.17356   -426.51096    216156.16    -20161.21    1521.3125   -21682.523   -1210.7958     368.2046    39.395052    39.306263    23.733175 
   69000    235.60743   -424.59665    216156.16   -20194.983    1492.3896   -21687.372   -1140.9757    369.03974    39.394702    39.306534    23.736397 
   69200      226.452   -256.85311    216156.16   -20263.895    1434.3971   -21698.292    -404.8602    369.45923    39.393622    39.307017    23.743373 
   69400    228.39474   -370.62425    216156.16   -20311.925    1446.7028   -21758.628   -962.47049    371.04479    39.394152    39.308906    23.742583 
   69600    242.33045   -416.50315    216156.16   -20154.887    1534.9747   -21689.861   -1124.6328    371.69499     39.39499     39.30973    23.736157 
   69800     229.6066   -476.23062    216156.16   -20230.182     1454.379   -21684.561   -1339.8425    373.51717    39.393932    39.311261    23.712209 
   70000    234.24761   -354.10867    216156.16   -20193.354    1483.7762    -21677.13   -901.75942     375.9414    39.392215    39.307093    23.695759 
   70200    235.73864   -435.50935    216156.16   -20190.172    1493.2207   -21683.393   -1164.9527    377.99494    39.391579    39.303815    23.689312 
   70400    243.22358   -508.88257    216156.16   -20124.666     1540.632   -21665.298   -1545.2544     377.1874    39.391559     39.30417    23.681939 
   70600    235.10162   -421.27659    216156.16   -20204.952    1489.1857   -21694.137   -1173.0064    376.56851    39.392367    39.303409    23.698407 
   70800     230.5704    -426.2339    216156.16   -20204.553    1460.4839   -21665.037   -1185.8192    377.90419    39.394503    39.304132     23.68251 
   71000    232.58127   -367.44749    216156.16   -20267.561    1473.2213   -21740.782   -949.65868    378.08173    39.392486    39.304105    23.675645 
   71200    234.02866   -471.21801    216156.16   -20220.354    1482.3893   -21702.744   -1365.3822    378.45023    39.390878    39.302862    23.668297 
   71400    231.14208   -440.42136    216156.16   -20228.386    1464.1051   -21692.492   -1260.7064    380.93507    39.388905    39.300692    23.675314 
   71600    234.74381   -291.52069    216156.16   -20187.292    1486.9193   -21674.212   -605.35056    382.29275    39.391186    39.301898    23.682045 
   71800    231.06867    -360.6714    216156.16   -20280.726    1463.6401   -21744.366   -887.96088    385.32925    39.392556    39.302669    23.684194 
   72000    231.32671   -507.01316    216156.16   -20266.532    1465.2746   -21731.806   -1507.7209    387.17546    39.390603    39.302823       23.679 
   72200    245.90742   -439.36226    216156.16   -20129.933     1557.632   -21687.565   -1211.2468    388.23966    39.391029    39.303174    23.690846 
   72400    238.12949   -381.54029    216156.16   -20203.745    1508.3649    -21712.11   -936.61104    387.77443    39.390561     39.30386    23.706422 
   72600    236.82765   -398.75109    216156.16   -20149.864    1500.1188   -21649.982    -1020.808    389.16764    39.391233    39.304485    23.715566 
   72800    236.72484   -245.63024    216156.16   -20188.174    1499.4675   -21687.642   -376.31706    388.47427    39.393044    39.307766    23.695576 
   73000     229.1686   -462.48638    216156.16   -20218.054    1451.6046   -21669.659   -1287.9401    389.38155    39.394729    39.310507    23.689653 
   73200    235.10217   -402.02842    216156.16   -20140.671    1489.1892    -21629.86   -1063.0679    389.86973    39.395986    39.312633    23.693335 
   73400    229.18464   -457.12123    216156.16   -20148.409    1451.7062   -21600.115   -1321.5641     389.7374    39.395855    39.313575    23.700379 
   73600    233.84492   -455.30806    216156.16   -20145.306    1481.2255   -21626.532   -1320.4521    391.12955    39.396144    39.315174    23.733964 
   73800    227.59374   -322.48032    216156.16   -20227.566    1441.6291   -21669.195   -716.85399    390.39835    39.393597    39.314244    23.734079 
   74000    229.58018   -298.99876    216156.16    -20238.96    1454.2117   -21693.171   -581.52657    393.43778    39.391248    39.314771    23.735169 
   74200     232.3521   -464.50413    216156.16   -20159.756    1471.7697   -21631.526   -1336.3033    392.43511    39.391643    39.315024    23.720295 
   74400    235.22577     -390.659    216156.16   -20143.579    1489.9721   -21633.551   -1011.4582    395.80546    39.391825    39.316276    23.710815 
   74600      228.308   -381.16025    216156.16   -20178.864    1446.1534   -21625.018   -954.11024    397.32672    39.393517    39.315915    23.721584 
   74800    241.67173   -460.26224    216156.16   -20180.169    1530.8022   -21710.971   -1273.2481    394.77893    39.392941    39.318029    23.728452 
   75000    233.89581   -418.33198    216156.16   -20213.641    1481.5478   -21695.189   -1114.6615    394.55132    39.394129    39.319628    23.737603 
   75200     240.0854   -472.03415    216156.16   -20132.814    1520.7541   -21653.568   -1303.1442    395.62202    39.395772    39.323683    23.748032 
   75400    231.24253   -333.87365    216156.16   -20216.527    1464.7414   -21681.268   -781.06017     395.8892    39.394941    39.324131    23.752168 
   75600    239.86505    -224.7319    216156.16   -20187.786    1519.3583   -21707.144   -285.51197    396.38982    39.395277     39.32216    23.744309 
   75800    236.68844   -521.21138    216156.16   -20113.057     1499.237   -21612.294   -1516.9513    395.73428    39.395534    39.323836    23.733113 
   76000    239.35393   -343.57519    216156.16   -20121.922    1516.1208   -21638.042   -779.16283     397.5562    39.395647    39.325333    23.718579 
   76200    228.37308   -293.99627    216156.16   -20207.578    1446.5657   -21654.144   -554.73542    396.77378    39.395842    39.326393    23.709916 
   76400    231.45829   -512.06671    216156.16   -20179.091    1466.1081   -21645.199   -1549.6746    398.28572     39.39826    39.324824    23.729873 
   76600    239.96352   -397.33578    216156.16   -20189.798    1519.9821    -21709.78   -1024.6834    399.44469    39.401404    39.323955    23.747811 
   76800    235.91152   -463.82995    216156.16   -20190.078    1494.3158   -21684.394   -1359.6722    402.03157    39.401637    39.323551    23.756613 
   77000    233.53546     -371.442    216156.16   -20183.463    1479.2653   -21662.728   -921.61236    402.91302    39.401522    39.323927    23.727838 
   77200     239.3598   -346.70422    216156.16   -20146.356    1516.1579   -21662.514   -816.02631    404.23269    39.401225    39.322553    23.707448 
   77400    239.66814   -469.51443    216156.16   -20195.113     1518.111   -21713.224   -1289.1213    406.19005    39.401631    39.322836    23.705287 
   77600    238.84908   -216.60911    216156.16   -20230.883    1512.9229   -21743.806   -224.04174    406.02331    39.400166    39.321381     23.73725 
   77800     238.5124   -286.47023    216156.16   -20223.757    1510.7903   -21734.547   -538.31451    405.12331    39.398185    39.322066    23.758104 
   78000    229.76813   -508.90336    216156.16   -20290.012    1455.4022   -21745.414   -1491.0645    406.94135    39.395863    39.319633     23.75069 
   78200    232.78977   -339.40035    216156.16   -20206.865    1474.5419   -21681.407   -809.20045    406.28033    39.393921    39.320536    23.753363 
   78400    237.66665   -322.14217    216156.16   -20192.112    1505.4332   -21697.545    -720.9027    408.12619    39.392237    39.321593    23.741554 
   78600    236.54069   -229.62662    216156.16    -20196.34    1498.3011   -21694.642    -345.8067    408.24848    39.392729    39.320733    23.743893 
   78800    238.29683   -422.31128    216156.16   -20180.466    1509.4249    -21689.89   -1132.1039    408.64866    39.392606    39.319848    23.757537 
   79000    237.27834   -353.23588    216156.16   -20124.471    1502.9735   -21627.445   -863.80188     409.0423    39.392724    39.318985    23.771384 
   79200    243.17292   -250.73379    216156.16   -20121.433    1540.3111   -21661.744   -421.96619    409.03765    39.392793    39.319747    23.781605 
   79400    238.27373   -527.98886    216156.16   -20115.475    1509.2786   -21624.753    -1621.318     408.7908    39.394808    39.318719    23.799286 
   79600    234.03485   -449.34039    216156.16   -20213.837    1482.4285   -21696.265   -1242.8418    410.26564    39.394928    39.317631     23.79656 
   79800    232.80856   -357.99907    216156.16   -20183.726     1474.661   -21658.387    -906.8703    412.09168    39.395019    39.319079    23.794728 
   80000     228.3309   -321.05675    216156.16   -20203.515    1446.2984   -21649.813   -715.84241    412.28754    39.394531    39.320037    23.784437 
   80200    239.02576   -420.65735    216156.16   -20214.853     1514.042   -21728.895   -1121.6586    414.22317    39.394381    39.322912    23.776098 
   80400    229.98423   -491.61596    216156.16   -20220.898     1456.771   -21677.669   -1473.7089    416.73494    39.393856    39.323284    23.777768 
   80600    230.30712   -327.94795    216156.16   -20229.766    1458.8163   -21688.582   -752.56785     417.7517    39.394928    39.323731    23.765471 
   80800    231.05018   -504.25977    216156.16   -20216.409     1463.523   -21679.932   -1476.5747     419.3731    39.398123    39.322991    23.764802 
   81000    234.46268    -376.6662    216156.16   -20202.218    1485.1385   -21687.356   -942.67831     419.0228    39.400749    39.323187    23.777943 
   81200    233.27441   -281.77495    216156.16   -20186.693    1477.6118   -21664.305    -562.2314    420.49337    39.403745    39.323207    23.773295 
   81400    237.59349   -346.70611    216156.16   -20168.952    1504.9697   -21673.921   -850.66357    421.29382    39.404265    39.321316    23.780796 
   81600     234.0218     -376.967    216156.16   -20227.021    1482.3459   -21709.367   -940.01401    422.16359    39.404712    39.319168    23.773748 
   81800    232.11223   -528.56342    216156.16   -20276.391    1470.2502   -21746.641   -1581.0621    420.84552    39.403435    39.319555    23.776482 
   82000     236.2748   -395.50042    216156.16   -20234.324    1496.6169    -21730.94   -1005.3895    421.27152    39.403057    39.321249    23.797088 
   82200    237.53386   -405.84429    216156.16       -20146     1504.592   -21650.592   -1076.3079    421.69986    39.404863    39.322375    23.796538 
   82400    233.37347   -209.88116    216156.16   -20149.925    1478.2392   -21628.165   -206.66638    424.16126    39.406041    39.321126     23.80215 
   82600    243.43232   -491.28476    216156.16   -20114.472    1541.9542   -21656.426   -1430.2801     424.7477    39.406061    39.320872    23.801127 
   82800    232.26276   -289.84529    216156.16   -20186.913    1471.2037   -21658.117   -597.79705    425.54462    39.405081    39.322733    23.813413 
   83000    235.87888   -461.18777    216156.16   -20103.536    1494.1091   -21597.645   -1338.8709    427.32065    39.405227    39.323057    23.793513 
   83200    230.25135   -296.40511    216156.16   -20147.803     1458.463   -21606.266   -582.77725    428.16828    39.406114     39.32332    23.805436 
   83400    233.96889    -503.3453    216156.16   -20185.254    1482.0107   -21667.265   -1474.2143     429.6638    39.408455    39.322699    23.814819 
   83600    229.75938   -171.95144    216156.16   -20238.366    1455.3467   -21693.713   -59.782917    429.66134    39.407761    39.321472    23.810427 
   83800    237.19497   -139.67502    216156.16   -20181.072    1502.4455   -21683.517    42.084397    430.05401    39.408853    39.322114    23.817288 
   84000    234.96809   -300.20705    216156.16   -20150.108    1488.3399   -21638.448   -658.76251    429.43601    39.409154    39.324566    23.815885 
   84200    232.34385   -520.13795    216156.16   -20117.314    1471.7174   -21589.032   -1562.6752     431.6723    39.409947    39.324415    23.809974 
   84400    236.31324   -499.78195    216156.16   -20173.274    1496.8604   -21670.134   -1497.8438    433.30675    39.411127    39.325363    23.815278 
   84600    237.36669   -200.56705    216156.16   -20132.915    1503.5332   -21636.448   -226.13917    431.64826    39.409511    39.324361    23.810162 
   84800    231.62405   -468.53228    216156.16   -20124.598     1467.158   -21591.756   -1354.7917    431.10387    39.410297    39.324165    23.814966 
   85000    235.57275   -434.85467    216156.16   -20133.946      1492.17   -21626.116   -1199.7144    432.22012     39.40921    39.323288    23.830472 
   85200     229.8525   -476.49531    216156.16   -20145.373    1455.9366    -21601.31   -1425.7383    431.21577    39.410005    39.322859    23.837574 
   85400    236.87274   -320.96596    216156.16   -20204.335    1500.4044   -21704.739   -718.22035    429.38965    39.409196    39.322018    23.837575 
   85600    233.95524   -409.88105    216156.16   -20221.797    1481.9243   -21703.721   -1081.4648    431.93526    39.409281    39.322131    23.845609 
   85800    242.30035   -235.77253    216156.16    -20155.23     1534.784   -21690.014   -372.34117    432.81109    39.410641    39.323488    23.857411 
   86000    229.67053   -407.24666    216156.16   -20182.368     1454.784   -21637.152   -1078.1477    433.09373    39.409729    39.325805     23.88296 
   86200    235.21233    -284.5552    216156.16   -20149.543     1489.887   -21639.429   -542.54723    435.18323    39.412839    39.325864      23.8758 
   86400    236.22059   -394.56624    216156.16   -20233.285    1496.2735   -21729.559   -1031.6892    435.73268    39.413907    39.323046    23.896578 
   86600    230.99119   -367.99469    216156.16   -20167.038    1463.1493   -21630.187   -924.24242    438.36358    39.414753    39.324108    23.890692 
   86800    232.45593   -428.81205    216156.16   -20237.982    1472.4273   -21710.409   -1140.6993    438.46004    39.414227    39.322813    23.869981 
   87000    236.63383   -430.58517    216156.16   -20168.296    1498.8911   -21667.187   -1197.6861     437.9044    39.412227    39.322027    23.876142 
   87200    236.00982   -280.15843    216156.16   -20140.418    1494.9385   -21635.357   -526.54579    439.25969    39.410434    39.322444    23.896203 
   87400    233.45582   -463.91672    216156.16   -20225.622    1478.7608   -21704.383   -1319.1072    437.08269    39.409537     39.32356    23.891407 
   87600     239.0896   -289.19853    216156.16   -20157.584    1514.4465    -21672.03   -584.82496    437.44359    39.411733    39.324972    23.903068 
   87800    230.40312   -420.14074    216156.16   -20198.512    1459.4244   -21657.936   -1168.2648    438.58106    39.412179    39.324869    23.884664 
   88000    233.08907    -391.4929    216156.16   -20195.172    1476.4378    -21671.61   -1025.6006      438.787    39.411977     39.32435    23.867994 
   88200    229.48905   -334.81152    216156.16   -20239.241    1453.6345   -21692.875   -821.97353    439.63847    39.410911    39.324288    23.871836 
   88400    235.33681   -365.89386    216156.16   -20151.924    1490.6754   -21642.599   -898.27743    439.82648    39.410595    39.324537    23.847868 
   88600    237.81768   -227.39113    216156.16   -20209.816    1506.3898   -21716.205   -358.00378    439.84972     39.41009    39.324205    23.838415 
   88800    232.86061   -498.73628    216156.16    -20238.96    1474.9907   -21713.951   -1494.2988    439.75075    39.409173    39.324196    23.831269 
   89000    234.13935   -662.81756    216156.16   -20195.043    1483.0905   -21678.134   -2180.4429    440.81816    39.409341     39.32486    23.822892 
   89200    238.78523    -317.3021    216156.16   -20159.559    1512.5185   -21672.077    -677.2075    441.94185    39.410987    39.324702     23.82373 
   89400    235.76198   -441.41834    216156.16   -20166.343    1493.3686   -21659.711   -1234.2717     442.6994    39.412602    39.324265    23.829735 
   89600     230.0856   -496.77876    216156.16   -20284.048    1457.4131   -21741.461   -1459.6909    443.78225    39.411574    39.323336     23.81467 
   89800     238.4544   -275.30408    216156.16   -20190.561    1510.4229   -21700.984   -512.61252    444.67794    39.409207    39.324659    23.826509 
   90000    236.88385   -392.29983    216156.16   -20210.079    1500.4748   -21710.554   -1020.8242    444.56325    39.408385    39.324051    23.819997 
   90200    233.93723   -579.76555    216156.16   -20240.699    1481.8102   -21722.509   -1843.2789    444.44227     39.41128    39.323027    23.793117 
   90400    233.00979   -404.80302    216156.16   -20150.409    1475.9356   -21626.345   -1086.3455    445.81803    39.412262    39.323348    23.779116 
   90600    235.92712   -463.74697    216156.16   -20170.089    1494.4146   -21664.503   -1349.9257    447.06375     39.41181    39.322404    23.793831 
   90800    231.20727   -369.57861    216156.16   -20163.795     1464.518   -21628.313   -920.70211    448.93823    39.412359    39.320455    23.804134 
   91000    234.91099   -336.66276    216156.16   -20197.123    1487.9782   -21685.101   -810.98268    450.96984    39.412339    39.319826    23.828348 
   91200    230.36584   -188.24523    216156.16   -20279.462    1459.1882    -21738.65   -188.86176    451.59619    39.413159    39.319931    23.815523 
   91400    235.00701   -370.82252    216156.16   -20237.398    1488.5864   -21725.985   -884.96707    452.16746    39.414234    39.318123    23.805554 
   91600    239.93811   -425.03401    216156.16   -20161.726    1519.8211   -21681.547   -1137.6965    453.50107    39.414599     39.31898     23.82909 
   91800    234.28134   -400.38398    216156.16   -20208.393    1483.9898   -21692.383   -1091.3931    451.99077    39.413573    39.321787    23.825774 
   92000    235.89587   -420.40762    216156.16   -20190.344    1494.2167   -21684.561   -1152.6326    453.91688    39.413271    39.322409     23.82032 
   92200    231.34161   -562.21891    216156.16   -20205.718    1465.3689   -21671.087    -1758.991    454.45367    39.412576    39.322785    23.810974 
   92400    243.25644   -379.89418    216156.16   -20180.715    1540.8401   -21721.555   -937.76837    454.77347    39.412166    39.323443    23.818323 
   92600    239.08304   -320.27926    216156.16    -20122.52    1514.4049   -21636.925   -712.94486    453.56781    39.412553    39.323474    23.824877 
   92800    228.17276   -412.38138    216156.16   -20216.703    1445.2968       -21662   -1080.0016    454.88317    39.412069    39.320569    23.821088 
   93000    236.26824   -416.30523    216156.16   -20247.853    1496.5753   -21744.429   -1161.4978    456.64517    39.411543    39.318163    23.816225 
   93200    233.36626   -480.04505    216156.16   -20236.282    1478.1936   -21714.476   -1367.1655    456.17519      39.4114    39.318288    23.786916 
   93400    226.04431   -279.93045    216156.16   -20267.696    1431.8147   -21699.511   -552.30424    457.28928      39.4112    39.316654    23.789457 
   93600    229.93803   -403.37697    216156.16   -20240.573    1456.4784   -21697.051   -1061.2613    458.06311    39.410954    39.316762    23.774284 
   93800    228.01913   -311.15558    216156.16   -20295.355    1444.3236   -21739.678   -698.00832    459.78041    39.411186    39.313881    23.779295 
   94000    233.34448   -519.32361    216156.16   -20307.788    1478.0556   -21785.844    -1569.022    460.82216    39.411453    39.311971    23.791791 
   94200    234.16375   -494.66881    216156.16   -20218.433     1483.245   -21701.678   -1483.4045    462.23627    39.413162    39.310404    23.770906 
   94400      231.807   -278.46127    216156.16   -20238.929    1468.3168   -21707.246   -525.48462    461.54853    39.411846    39.306271    23.788341 
   94600    232.54078   -320.54256    216156.16   -20208.267    1472.9648   -21681.232   -705.67402    461.43466    39.412527    39.303101    23.778614 
   94800    233.85536   -244.97202    216156.16   -20184.793    1481.2916   -21666.085   -432.16952    460.90611    39.412203    39.301239    23.785191 
   95000    226.54286   -424.00213    216156.16    -20232.24    1434.9726   -21667.213   -1172.3863    462.08865    39.411425     39.30313    23.803036 
   95200    238.58113   -563.42589    216156.16   -20230.918    1511.2257   -21742.143    -1735.926    463.49419    39.411531    39.299743    23.789985 
   95400    240.55412   -271.06949    216156.16   -20239.388     1523.723   -21763.111   -484.51781     463.1608    39.412082    39.297522    23.754989 
   95600    244.26625   -328.82758    216156.16    -20225.96    1547.2365   -21773.197   -760.19224    466.12078    39.411213    39.296514    23.764245 
   95800    232.03123   -373.50024    216156.16    -20213.72    1469.7372   -21683.457   -918.91765    465.55235     39.40954    39.296742    23.771249 
   96000    230.77309   -335.20035    216156.16   -20183.194    1461.7678   -21644.961   -754.16226    466.10703    39.411737    39.297038    23.769993 
   96200    242.68156   -356.56381    216156.16   -20116.302    1537.1987   -21653.501   -823.04198    469.50508    39.409187     39.29843    23.772847 
   96400    233.29862   -407.26251    216156.16   -20182.077    1477.7651   -21659.842   -1062.9957    471.00773    39.408367    39.297892    23.771555 
   96600    234.30369   -419.91635    216156.16   -20203.226    1484.1315   -21687.358   -1148.1174    472.84914    39.407442     39.29727    23.764107 
   96800    241.95696   -383.70621    216156.16   -20166.113     1532.609   -21698.722   -1021.9258    473.00175    39.406439    39.297005     23.77238 
   97000    229.30921   -290.81546    216156.16   -20241.412    1452.4953   -21693.907    -554.8664    475.32291    39.407152    39.294558    23.761602 
   97200    232.24808   -366.68796    216156.16   -20228.682    1471.1107   -21699.793    -900.6522    475.55653    39.405173    39.291511    23.725596 
   97400    233.06666   -413.68811    216156.16   -20192.732    1476.2958   -21669.028   -1123.7494    475.67738    39.404456    39.289436     23.70943 
   97600    239.86807   -299.47873    216156.16   -20132.043    1519.3775   -21651.421   -588.20968    476.77774    39.402223     39.28997    23.697837 
   97800    236.97333   -258.11298    216156.16    -20154.79    1501.0415   -21655.831   -460.48718    476.58506    39.401117    39.290792    23.713619 
   98000    232.21688    -308.1227    216156.16   -20223.874    1470.9131   -21694.787   -657.45604    478.47253    39.402552    39.290482    23.731373 
   98200    230.91795    -425.8015    216156.16   -20220.622    1462.6854   -21683.307   -1147.5397    480.54586    39.402518    39.291065    23.721287 
   98400    232.97545   -365.25632    216156.16   -20199.566    1475.7181   -21675.284   -911.20058    479.59257    39.401153    39.291166    23.740572 
   98600    235.86147   -372.12039    216156.16   -20206.135    1493.9988   -21700.134   -929.90594     479.0177    39.399946    39.292018    23.733455 
   98800    235.19006   -293.58336    216156.16   -20195.622    1489.7459   -21685.368   -576.20102    478.71585    39.400636    39.292354    23.725881 
   99000    234.89306   -493.67591    216156.16   -20273.135    1487.8646   -21760.999   -1466.1247    481.19723      39.4011    39.292321    23.715406 
   99200    234.90769   -291.82103    216156.16   -20252.863    1487.9573   -21740.821   -600.69802    479.71616    39.399346    39.290833    23.715649 
   99400    239.73571   -414.72226    216156.16   -20231.965     1518.539   -21750.504    -1084.856    479.42168    39.398824    39.290659    23.724361 
   99600     233.0614   -287.18412    216156.16   -20207.109    1476.2625   -21683.371    -558.9546    481.83648    39.399675    39.289846    23.724841 
   99800    232.70835   -350.34074    216156.16   -20212.826    1474.0262   -21686.853   -832.66723    483.74468    39.400092    39.289429    23.754978 
  100000    236.86655   -286.17739    216156.16   -20191.405    1500.3652   -21691.771   -571.79853    483.29579    39.396927     39.29072    23.750409 
  100200    226.95674   -362.78899    216156.16   -20250.653    1437.5942   -21688.247   -899.98784     484.3664    39.396186    39.290775    23.759861 
  100400    231.34413   -356.40162    216156.16   -20171.261    1465.3849   -21636.646     -879.126    483.99067    39.396484    39.291395    23.746964 
  100600    229.13897   -446.58976    216156.16   -20180.261    1451.4169   -21631.678   -1211.2862    484.26551    39.399011    39.292482    23.765339 
  100800      226.582   -320.90491    216156.16   -20214.767    1435.2206   -21649.988   -703.82949    486.42455    39.400474    39.292888    23.744504 
[...]
 3976000    223.13682    -406.9327    216156.16   -22026.607     1413.398   -23440.005   -1069.2029     4823.867    39.507358    40.109218    23.769936 
 3976200    218.92996   -394.86541    216156.16   -22034.829    1386.7509    -23421.58   -1006.5232    4824.2173    39.505731    40.109714    23.764375 
 3976400    225.05013   -345.58248    216156.16    -22038.04    1425.5174   -23463.557   -778.68364    4824.1789    39.504568    40.111369    23.761423 
 3976600    229.35716   -339.12839    216156.16    -22031.22     1452.799    -23484.02   -755.46905    4824.2476    39.504872    40.112917    23.759298 
 3976800    221.18116   -444.38353    216156.16   -21979.704    1401.0104   -23380.714   -1148.6989     4823.962    39.503884    40.113903    23.768757 
 3977000    220.67635   -453.34105    216156.16   -22071.511    1397.8129   -23469.324   -1240.2865     4823.514    39.502902    40.113944    23.762876 
 3977200    231.65426   -380.95194    216156.16   -21984.733    1467.3493   -23452.083   -1003.0892    4824.3558    39.503372    40.115112    23.768735 
 3977400    221.26025   -426.70342    216156.16   -21986.074    1401.5114   -23387.585   -1158.4722    4823.6329    39.502084    40.115782     23.77073 
 3977600    227.82034    -455.0941    216156.16   -21996.676    1443.0645   -23439.741    -1317.789    4824.7022    39.500645    40.116965    23.764541 
 3977800    222.61483   -497.97163    216156.16    -22012.57    1410.0916   -23422.662   -1431.9094    4825.0365    39.500481    40.116479    23.759448 
 3978000    215.92405     -372.815    216156.16   -22043.122    1367.7107   -23410.832   -929.61942    4825.9288    39.500153    40.118372    23.768408 
 3978200    224.99939   -319.86813    216156.16   -21968.887    1425.1959   -23394.083   -686.92061    4823.1293    39.499738    40.118439    23.764619 
 3978400    220.47655   -373.05812    216156.16   -22027.827    1396.5473   -23424.374   -881.16137     4822.702    39.499569    40.117914    23.763255 
 3978600    228.54145   -478.37903    216156.16   -21982.728    1447.6321    -23430.36   -1323.9973     4824.274    39.498042    40.117735    23.771431 
 3978800    231.12181   -348.92859    216156.16   -21955.985    1463.9767   -23419.962   -772.34361    4822.3541    39.497268    40.118373    23.779075 
 3979000    225.61534   -345.37688    216156.16   -21990.043    1429.0975   -23419.141    -801.1836    4822.2626    39.496237    40.117658    23.778027 
 3979200    219.44961   -340.30739    216156.16    -22028.27    1390.0424   -23418.312   -781.88918    4822.6153    39.495239    40.118163    23.763785 
 3979400    225.40752   -392.08177    216156.16   -22001.598    1427.7811   -23429.379   -960.90088    4824.4377    39.495894    40.117983    23.764561 
 3979600    222.34796   -427.67883    216156.16   -22012.948    1408.4012   -23421.349    -1126.856    4823.0476     39.49451     40.11783    23.776955 
 3979800    225.27911   -433.39542    216156.16   -22000.629    1426.9678   -23427.597   -1137.1095    4823.7209    39.493928    40.118387     23.77427 
 3980000    231.34779   -324.24896    216156.16   -22006.353    1465.4081   -23471.761   -699.96459    4823.5802    39.492782    40.117349    23.767727 
 3980200    224.74668   -345.78382    216156.16   -22001.857    1423.5952   -23425.452   -789.20096     4823.228    39.493446    40.117077    23.764573 
 3980400    225.13673   -334.24174    216156.16   -21970.225    1426.0659   -23396.291   -700.17406    4820.5316    39.492724    40.115385    23.770721 
 3980600    223.94424   -360.24201    216156.16   -21927.815    1418.5124   -23346.328   -830.12239     4822.223    39.492717    40.113867     23.76842 
 3980800    229.30154    -339.8956    216156.16   -21962.206    1452.4467   -23414.653   -765.01801    4821.9213    39.491897    40.112133    23.770543 
 3981000    224.11746    -422.5663    216156.16   -21986.125    1419.6096   -23405.735   -1094.7554    4822.2278    39.491538      40.1109    23.771034 
 3981200    224.04584   -404.61387    216156.16   -21973.454    1419.1559    -23392.61   -1019.9695    4821.6939    39.493247    40.110571    23.765659 
 3981400    230.02717   -385.01145    216156.16   -21959.047     1457.043    -23416.09   -975.27293    4822.1248    39.494833    40.110462    23.774264 
 3981600    227.57497   -275.71296    216156.16   -22011.896    1441.5102   -23453.406   -461.64253    4822.0012    39.496409     40.10959    23.770722 
 3981800    223.36843   -312.45333    216156.16   -21996.757    1414.8651   -23411.622    -627.8418    4823.1991    39.497388    40.109683    23.765418 
 3982000     218.7125   -550.93822    216156.16   -22032.115    1385.3734   -23417.488   -1657.2354    4824.6093    39.498935    40.110608    23.768626 
 3982200    218.64123   -492.12611    216156.16    -22080.76     1384.922   -23465.682   -1387.0832    4822.7951    39.499465     40.11045    23.779449 
 3982400    223.19891   -285.58808    216156.16     -21994.6    1413.7913   -23408.391    -498.3503    4822.9909    39.500244    40.109155    23.778588 
 3982600    221.25346   -317.74046    216156.16   -22004.905    1401.4684   -23406.374   -662.07411    4822.9581    39.499345    40.109609    23.778577 
 3982800     229.6466   -492.66156    216156.16   -21952.116    1454.6324   -23406.748   -1431.6859    4823.0244    39.499555     40.10941    23.775697 
 3983000    230.48619    -538.2426    216156.16    -21922.68    1459.9506    -23382.63   -1599.7419    4823.5591    39.500462    40.108464    23.764703 
 3983200    225.50359   -421.49772    216156.16   -21952.648    1428.3896   -23381.038    -1119.826    4822.5625    39.499984    40.108135    23.771593 
 3983400     231.1605   -409.24787    216156.16    -21912.33    1464.2218   -23376.552   -1088.6033    4823.0958    39.500327    40.107202    23.771373 
 3983600    226.20902   -332.82234    216156.16   -21984.246     1432.858   -23417.104   -746.96785    4823.6119     39.50088    40.107029     23.77303 
 3983800    226.77342   -473.20313    216156.16   -21968.671     1436.433   -23405.104   -1305.3182    4823.7239    39.498997     40.10637    23.766832 
 3984000    222.91101   -451.38567    216156.16   -21979.153    1411.9677   -23391.121   -1227.9439    4822.8152    39.498779    40.105486    23.762109 
 3984200    222.76206   -313.34653    216156.16   -21954.697    1411.0242   -23365.721   -660.75556    4824.7504    39.499679    40.104582     23.76767 
 3984400    225.33174   -361.47702    216156.16   -22005.337    1427.3011   -23432.639   -868.78157    4822.6666    39.500425    40.103739    23.761377 
 3984600    224.56154   -492.64674    216156.16   -22012.868    1422.4225   -23435.291   -1377.3618    4824.8357    39.499029    40.104782    23.763744 
 3984800    223.41782   -307.60529    216156.16   -21986.924    1415.1779   -23402.102   -623.44905    4823.8179    39.499907    40.105305    23.753303 
 3985000    221.36256   -376.24548    216156.16   -22031.027    1402.1594   -23433.186   -882.70039     4822.198    39.500221    40.105728    23.752782 
 3985200    224.96434   -384.10081    216156.16   -21985.442    1424.9739   -23410.416    -910.2529    4822.6475    39.500902    40.105301    23.754067 
 3985400    226.17547   -471.27577    216156.16   -21996.993    1432.6455   -23429.638   -1296.6099      4822.37    39.500182    40.103766    23.754867 
 3985600    225.06118   -331.31912    216156.16   -21949.873    1425.5873   -23375.461   -722.62197     4822.532    39.499403    40.103216    23.752698 
 3985800    228.17992   -404.45471    216156.16   -21963.855    1445.3421   -23409.197     -1086.18     4822.686    39.498702    40.102312    23.751761 
 3986000    231.95542   -425.86053    216156.16   -21893.393     1469.257    -23362.65   -1163.5273    4822.7776    39.497728    40.101958    23.757181 
 3986200    231.13897   -403.41131    216156.16   -21931.228    1464.0854   -23395.314   -1027.9758    4822.5905     39.49678    40.101712    23.750415 
 3986400    220.92289   -353.59428    216156.16   -22022.297    1399.3745   -23421.672   -800.81099    4822.7693    39.497181    40.100776    23.750622 
 3986600    226.74299   -380.87324    216156.16   -21982.615    1436.2403   -23418.855   -890.63692     4822.556    39.496492    40.100607    23.756394 
 3986800    223.55602   -388.43918    216156.16    -21976.96    1416.0533   -23393.013   -992.12666    4821.2251    39.496166    40.101684    23.749181 
 3987000    224.82484   -476.09534    216156.16   -21950.538    1424.0903   -23374.628   -1344.2791    4821.0361    39.495561     40.10084     23.76557 
 3987200    220.04245    -414.4059    216156.16   -22049.273    1393.7976   -23443.071   -1069.8263    4821.5341    39.494669    40.099394    23.771835 
 3987400     221.0212    -358.2584    216156.16   -21995.329    1399.9972   -23395.326   -854.29564    4820.4464    39.494046     40.09815    23.763455 
 3987600    225.46708   -426.60245    216156.16   -21939.176    1428.1584   -23367.334   -1116.9231     4821.974    39.495885    40.097754    23.764579 
 3987800    224.09892   -486.79417    216156.16   -21994.653    1419.4922   -23414.145   -1367.7583    4820.9182    39.495485     40.09739    23.765157 
 3988000     227.1743   -379.86173    216156.16   -21945.583    1438.9723   -23384.555    -930.4104    4820.8747    39.493937    40.097854    23.758938 
 3988200    221.69534   -345.05546    216156.16   -21977.466    1404.2674   -23381.733   -806.60953    4821.6735    39.493655    40.097912    23.758315 
 3988400    220.78936   -364.90733    216156.16   -21958.069    1398.5287   -23356.598   -885.10473    4820.6289    39.492591    40.096819    23.755822 
 3988600     222.7436   -368.42013    216156.16   -22027.939    1410.9072   -23438.847   -828.78601    4822.0234    39.491487    40.094626    23.755153 
 3988800    223.91632   -389.04548    216156.16   -22029.097    1418.3355   -23447.433   -931.66066    4821.9495    39.490828    40.094335    23.755729 
 3989000    229.46677   -300.38458    216156.16    -21952.65    1453.4933   -23406.143   -587.69509    4820.9981    39.490505     40.09478    23.761734 
 3989200    231.03875   -362.10451    216156.16   -21990.351    1463.4506   -23453.802      -857.65    4821.2721     39.48833    40.094025    23.766125 
 3989400     229.3407   -410.46236    216156.16   -22020.424    1452.6947   -23473.118   -1037.3964     4822.657    39.488849    40.092595    23.765891 
 3989600    225.08177   -415.74223    216156.16   -21927.327    1425.7177   -23353.045   -1057.9385    4821.3456    39.488971     40.09066    23.769305 
 3989800    225.41562    -372.7894    216156.16   -21956.521    1427.8325   -23384.354   -904.47407    4821.5002    39.489667     40.08802     23.76592 
 3990000    224.28652   -373.66316    216156.16   -22002.051    1420.6805   -23422.731    -924.9502    4820.5897    39.488537    40.085863    23.764894 
 3990200    223.64025   -370.79558    216156.16   -22003.656    1416.5868   -23420.243   -890.08664    4820.4825    39.487031    40.084891    23.772961 
 3990400    225.35147   -430.85072    216156.16   -21974.587    1427.4261   -23402.013   -1169.1995    4822.0789    39.485454    40.084826     23.77003 
 3990600    223.29675   -459.68918    216156.16    -22019.95    1414.4111   -23434.361   -1265.8579    4821.8169     39.48582    40.083819    23.772793 
 3990800    228.27344   -463.76152    216156.16   -21983.088    1445.9345   -23429.023   -1299.3192     4821.726    39.483183    40.083165    23.771994 
 3991000    228.50901   -418.03639    216156.16   -21940.919    1447.4267   -23388.346    -1078.854    4820.1302     39.48259    40.081963    23.772444 
 3991200    228.82544   -429.97786    216156.16   -21937.297     1449.431   -23386.728   -1188.5325    4820.6244    39.483663    40.082709    23.756237 
 3991400     226.9896   -376.78521    216156.16   -21942.476    1437.8024   -23380.278   -885.75498    4821.1546    39.483032    40.084193    23.761498 
 3991600    226.49905   -461.29529    216156.16   -21992.485    1434.6951    -23427.18   -1239.4144    4819.8571     39.48228    40.084287    23.767344 
 3991800    220.14939   -434.49765    216156.16   -22054.795     1394.475    -23449.27    -1117.752    4821.3863    39.482696    40.084453    23.757096 
 3992000    225.99265   -372.66371    216156.16   -21998.671    1431.4875   -23430.158   -886.49405    4820.7578    39.482628    40.084581     23.75934 
 3992200    224.18129   -355.59324    216156.16   -21979.323    1420.0139   -23399.337   -849.98022    4820.2963     39.48297    40.084088    23.773012 
 3992400    226.46208    -210.1747    216156.16   -21987.442    1434.4609   -23421.903   -188.13771    4821.2912     39.48234    40.085323    23.777006 
 3992600    224.71693   -384.79074    216156.16   -21983.716    1423.4068   -23407.123   -960.67809    4820.0303    39.480773    40.084808     23.78102 
 3992800    226.36276   -332.50633    216156.16   -21986.545    1433.8318   -23420.377   -739.18456    4820.3757    39.479629    40.085664    23.772968 
 3993000    215.93642    -393.5258    216156.16   -22069.437    1367.7891   -23437.227   -947.60998    4821.3861    39.480009    40.086349     23.76874 
 3993200    225.87598    -372.3336    216156.16   -21993.356    1430.7485   -23424.104   -895.23954    4821.1234    39.479252    40.086619    23.765171 
 3993400    224.98643   -435.09007    216156.16    -21953.89    1425.1139   -23379.004   -1147.4487    4820.2692    39.478417    40.085249    23.768987 
 3993600    227.02713   -395.13809    216156.16   -21974.134    1438.0401   -23412.174   -988.36055    4820.2697    39.479511    40.085562    23.770091 
 3993800    226.27361   -380.54205    216156.16   -21984.035    1433.2671   -23417.302   -932.92933    4819.7185    39.478116    40.085746    23.768256 
 3994000    226.90334   -353.04987    216156.16   -21993.119     1437.256   -23430.375   -818.62219    4822.2113    39.477343    40.085684    23.769238 
 3994200     226.0465   -334.40342    216156.16   -22009.179    1431.8285   -23441.007   -785.75621    4820.6466    39.476831    40.085557    23.764809 
 3994400    223.60288   -400.34853    216156.16   -21981.988    1416.3502   -23398.339   -1046.6974     4821.183     39.47698    40.084516    23.765997 
 3994600    218.45703   -514.24492    216156.16   -22043.157    1383.7552   -23426.912    -1538.357    4820.8071     39.47752    40.083613    23.756688 
 3994800    219.30304   -451.48569    216156.16   -21946.357     1389.114   -23335.471   -1274.5688    4820.8813    39.478259    40.083215    23.759518 
 3995000    226.58106   -417.75214    216156.16   -21958.627    1435.2146   -23393.842   -1115.7072    4820.9062    39.478767    40.083426    23.762622 
 3995200     221.5505   -483.59968    216156.16   -22005.978    1403.3499   -23409.328   -1389.7824    4820.7962    39.478628    40.083731    23.767576 
 3995400    219.97159    -567.7014    216156.16   -21943.849    1393.3487   -23337.198   -1753.7719     4820.762    39.478125    40.082568    23.767503 
 3995600    228.35025    -445.1803    216156.16    -21881.88     1446.421   -23328.301   -1231.8141    4819.8724    39.476989    40.082447     23.75996 
 3995800    232.74926   -304.18242    216156.16   -21914.776    1474.2853   -23389.061   -586.88919    4819.3304    39.476501    40.083037      23.7656 
 3996000    233.56667   -329.60258    216156.16   -21866.727     1479.463    -23346.19   -696.34978    4820.9321    39.476702    40.084209    23.770821 
 3996200    227.76789   -440.80923    216156.16   -21951.035    1442.7323   -23393.767   -1191.9294    4820.2127    39.475664    40.084323    23.770935 
 3996400    231.43885   -343.87461    216156.16   -21988.517    1465.9849   -23454.502   -786.59492     4819.928    39.475552     40.08328    23.763794 
 3996600    222.59938    -330.5477    216156.16   -21969.753    1409.9938   -23379.747   -762.72207     4820.562    39.475623    40.082443    23.766777 
 3996800     219.7979   -442.48407    216156.16    -22000.14    1392.2485   -23392.388   -1211.5989    4819.6574    39.476241    40.082272    23.763532 
 3997000    234.09018   -468.35161    216156.16   -21891.329     1482.779   -23374.108   -1325.0703    4821.1191     39.47747    40.081701    23.759359 
 3997200     227.5599   -342.48811    216156.16   -21947.791    1441.4148   -23389.205   -791.88827    4819.9582    39.478438    40.080972    23.751224 
 3997400    223.19872   -349.49518    216156.16   -22003.671    1413.7901   -23417.462   -799.60002    4818.6051    39.476792    40.080376    23.761632 
 3997600     223.3991   -372.53355    216156.16    -21928.69    1415.0593   -23343.749   -868.24835    4819.2995    39.476404    40.080489    23.758331 
 3997800    215.69573   -387.28908    216156.16   -22050.155    1366.2645   -23416.419   -948.93197    4818.7016    39.475697    40.080163    23.763026 
 3998000      223.335   -386.98334    216156.16   -21988.359    1414.6533   -23403.012   -1002.5316    4819.6126    39.474368    40.080779    23.759424 
 3998200    221.25555    -400.0999    216156.16   -22029.869    1401.4816    -23431.35   -1008.5572    4818.3432    39.473995    40.079916    23.754438 
 3998400    232.25636   -357.66029    216156.16   -21913.102    1471.1632   -23384.265   -848.17575     4817.612    39.475114    40.080454    23.739162 
 3998600    224.94597   -344.88949    216156.16   -22009.874    1424.8576   -23434.732   -765.11893    4818.1495     39.47354    40.079679    23.734713 
 3998800    221.57388     -368.065    216156.16   -21999.341     1403.498   -23402.839   -897.28739    4818.7361    39.472059    40.079026    23.731436 
 3999000    231.15235   -396.36107    216156.16   -21941.218    1464.1701   -23405.388   -998.74706     4819.513    39.470076    40.078603    23.730884 
 3999200    216.72929   -413.42256    216156.16   -21991.872    1372.8113   -23364.684   -1045.5661    4820.2227    39.469345    40.078809    23.730148 
 3999400     217.7987   -437.49932    216156.16   -22024.445    1379.5852   -23404.031   -1143.5974    4820.4105    39.468767    40.079699    23.744507 
 3999600    223.82747   -361.75831    216156.16   -22034.391    1417.7727   -23452.163   -876.33927    4818.3501    39.468857    40.080301    23.744666 
 3999800    230.61281   -377.66467    216156.16   -21959.127    1460.7526   -23419.879   -901.06182    4817.4754    39.467931    40.081003    23.745364 
 4000000    228.97321   -381.09292    216156.16   -21942.689     1450.367   -23393.056   -906.51286    4820.0462    39.467487    40.082019    23.742686 
Loop time of 2580.68 on 128 procs for 4000000 steps with 9422 atoms

Performance: 1339.182 ns/day, 0.018 hours/ns, 1549.980 timesteps/s
96.7% CPU use with 128 MPI tasks x no OpenMP threads

MPI task timing breakdown:
Section |  min time  |  avg time  |  max time  |%varavg| %total
---------------------------------------------------------------
Pair    | 0.27807    | 728.65     | 1856.1     |2373.8 | 28.23
Neigh   | 2.2305     | 99.51      | 230.7      | 781.8 |  3.86
Comm    | 72.684     | 716.62     | 1475.6     |1692.8 | 27.77
Output  | 60.849     | 60.89      | 61.048     |   0.3 |  2.36
Modify  | 112.85     | 946.53     | 2417.3     |2858.4 | 36.68
Other   |            | 28.49      |            |       |  1.10

Nlocal:        73.6094 ave         148 max           0 min
Histogram: 32 2 11 14 5 0 5 15 30 14
Nghost:        619.781 ave         865 max         417 min
Histogram: 19 12 21 11 13 5 12 8 11 16
Neighs:         0.00000 ave           0 max           0 min
Histogram: 128 0 0 0 0 0 0 0 0 0
FullNghs:      7442.94 ave       16631 max           0 min
Histogram: 41 23 0 0 0 0 5 15 28 16

Total # of neighbors = 952696
Ave neighs/atom = 101.11399
Neighbor list builds = 425252
Dangerous builds = 0
write_data 		${DIR}/data.${NAME}_run
write_data 		run_4/data.${NAME}_run
write_data 		run_4/data.ibeam_cooling_4_run
System init for write_data ...
Total wall time: 0:43:07
