
### Dimensions ###
variable Z_G equal 10.062000000000001
variable Z_W equal 23.803019087

variable	XDIM string 78.752
variable 	YDIM string 80.86108639999017


### IMPORT ATOMS ###
read_data ../Box_Setup/data.Ibeam_240K
Reading data file ...
  orthogonal box = (0.0000000 0.0000000 0.0000000) to (78.752000 80.861086 33.944269)
  8 by 8 by 2 MPI processor grid
  reading atoms ...
  9422 atoms
  reading velocities ...
  9422 velocities
  read_data CPU = 0.022 seconds
group water type 2
2126 atoms in group water
group graphite type 1
7296 atoms in group graphite


# Define potential
#
pair_style          sw
pair_coeff * * MLC_e.sw C mW

# Add velocity/set timestep
#

fix		1 graphite setforce 0.0 0.0 0.0
velocity 	graphite set 0.0 0.0 0.0
velocity            water create ${START_TEMP} ${SEED} rot yes dist gaussian
velocity            water create 235 ${SEED} rot yes dist gaussian
velocity            water create 235 31964 rot yes dist gaussian
timestep            5.0

# Define output
#
compute 1 water msd
compute 2 water temp


thermo	            100
thermo_style custom step c_2 press vol etotal ke pe c_1[4] density

# Neighbor lists
#
neigh_modify        delay 0 every 1 check yes


# Set fixes
#
fix                 2 water momentum 10 linear 1 1 1 rescale
fix                 3 all nve
fix                 4 water temp/csvr ${START_TEMP} ${START_TEMP} 500.0 928347
fix                 4 water temp/csvr 235 ${START_TEMP} 500.0 928347
fix                 4 water temp/csvr 235 235 500.0 928347

# Run 0.05 ns equilibration
#
dump                1 all custom 100 ${DIR}/eq.${NAME}.dump id type x y z vx vy vz
dump                1 all custom 100 run_4/eq.${NAME}.dump id type x y z vx vy vz
dump                1 all custom 100 run_4/eq.ibeam_cooling_4.dump id type x y z vx vy vz
run                 10000
Neighbor list info ...
  update every 1 steps, delay 0 steps, check yes
  max neighbors/atom: 2000, page size: 100000
  master list distance cutoff = 6.6747184
  ghost atom cutoff = 6.6747184
  binsize = 3.3373592, bins = 24 25 11
  1 neighbor lists, perpetual/occasional/extra = 1 0 0
  (1) pair sw, perpetual
      attributes: full, newton on
      pair build: full/bin/atomonly
      stencil: full/bin/3d
      bin: standard
Per MPI rank memory allocation (min/avg/max) = 3.605 | 4.456 | 4.732 Mbytes
Step c_2 Press Volume TotEng KinEng PotEng c_1[4] Density 
       0          235   -349.74665    216156.16   -20108.674     1488.542   -21597.216            0   0.96737059 
     100    233.53358   -321.18764    216156.16   -20124.318    1479.2534   -21603.571   0.87036633   0.96737059 
     200     239.1316   -349.37898    216156.16   -20170.391    1514.7125   -21685.104    1.3353564   0.96737059 
     300    237.88009   -330.19645    216156.16   -20178.703    1506.7851   -21685.489    1.7430127   0.96737059 
     400    229.93673   -432.42437    216156.16   -20204.843    1456.4702   -21661.314    2.2074949   0.96737059 
     500    235.26054   -494.14848    216156.16   -20198.687    1490.1923   -21688.879     2.536161   0.96737059 
     600    240.76811    -320.3006    216156.16   -20135.049    1525.0785   -21660.127    2.8039114   0.96737059 
     700    237.19843   -414.82503    216156.16   -20144.181    1502.4673   -21646.648    3.1108168   0.96737059 
     800    239.86714   -346.68123    216156.16    -20142.62    1519.3716   -21661.992    3.4762902   0.96737059 
     900    236.94614   -300.29173    216156.16   -20159.575    1500.8693   -21660.444    3.9140676   0.96737059 
    1000    233.42332   -353.91482    216156.16   -20208.109     1478.555   -21686.664    4.2576198   0.96737059 
    1100    235.89626   -373.77315    216156.16    -20188.48    1494.2192   -21682.699    4.7744165   0.96737059 
    1200    228.64876   -349.99186    216156.16    -20196.93    1448.3118   -21645.242    5.1543284   0.96737059 
    1300    232.70392   -416.60769    216156.16   -20138.084    1473.9982   -21612.083    5.4904927   0.96737059 
    1400    239.78114   -436.35927    216156.16    -20183.53    1518.8268   -21702.357    5.6707992   0.96737059 
    1500    232.68126   -361.89749    216156.16   -20211.672    1473.8546   -21685.527    5.9812777   0.96737059 
    1600    236.31906   -390.38266    216156.16   -20187.121    1496.8973   -21684.018    6.3889569   0.96737059 
    1700    232.93087   -345.56281    216156.16   -20207.797    1475.4357   -21683.233    6.7149178   0.96737059 
    1800    237.44741   -319.21702    216156.16   -20182.176    1504.0444    -21686.22    6.9596106   0.96737059 
    1900    242.43011   -470.79556    216156.16   -20137.554     1535.606    -21673.16    7.2227138   0.96737059 
    2000     244.9147   -251.31047    216156.16    -20123.25    1551.3439   -21674.594    7.5763866   0.96737059 
    2100    236.83717   -466.72782    216156.16   -20231.973    1500.1791   -21732.152     7.756317   0.96737059 
    2200    234.99862    -419.5506    216156.16   -20220.249    1488.5333   -21708.783    8.1991945   0.96737059 
    2300    236.57283   -322.11905    216156.16   -20197.637    1498.5047   -21696.142    8.3341012   0.96737059 
    2400    236.96327   -459.14457    216156.16   -20211.818    1500.9778   -21712.796    8.5637919   0.96737059 
    2500    234.77656   -473.99778    216156.16   -20229.805    1487.1267   -21716.931    8.7016536   0.96737059 
    2600    232.68809   -359.08555    216156.16   -20250.126    1473.8979   -21724.024    8.9988241   0.96737059 
    2700    236.99712   -392.12975    216156.16   -20236.401    1501.1922   -21737.594    9.1653085   0.96737059 
    2800    236.94608   -436.80434    216156.16   -20184.887    1500.8689   -21685.756    9.3399018   0.96737059 
    2900    240.70016   -346.49636    216156.16   -20188.767    1524.6481   -21713.415    9.6011913   0.96737059 
    3000    245.14543   -113.85271    216156.16   -20192.475    1552.8054    -21745.28    10.126593   0.96737059 
    3100    237.90757   -417.87456    216156.16   -20187.491    1506.9592   -21694.451    10.490113   0.96737059 
    3200    231.44331   -363.22788    216156.16   -20253.697    1466.0131    -21719.71    10.838432   0.96737059 
    3300    235.08092    -343.1365    216156.16   -20338.575    1489.0546   -21827.629    11.049057   0.96737059 
    3400    231.49668   -370.68139    216156.16   -20275.848    1466.3512   -21742.199    11.135743   0.96737059 
    3500    228.01047   -458.74691    216156.16   -20263.959    1444.2688   -21708.228    11.188109   0.96737059 
    3600    237.73665   -342.12029    216156.16   -20245.856    1505.8766   -21751.732    11.457584   0.96737059 
    3700    240.32859   -339.34897    216156.16   -20208.008    1522.2945   -21730.302    11.652312   0.96737059 
    3800    234.74656   -385.76066    216156.16   -20210.038    1486.9367   -21696.974    11.872807   0.96737059 
    3900    240.70699   -302.51099    216156.16   -20217.774    1524.6913   -21742.465    12.312349   0.96737059 
    4000    233.81002   -391.71449    216156.16   -20219.224    1481.0044   -21700.229    12.850435   0.96737059 
    4100    235.63504   -497.83061    216156.16   -20196.485    1492.5645   -21689.049    13.239989   0.96737059 
    4200    236.17465   -260.23523    216156.16   -20196.964    1495.9825   -21692.946     13.28222   0.96737059 
    4300    228.42995   -369.19331    216156.16   -20268.824    1446.9259    -21715.75    13.636375   0.96737059 
    4400    233.28806   -445.03678    216156.16   -20236.416    1477.6982   -21714.114    14.010557   0.96737059 
    4500    230.03666    -272.4146    216156.16   -20262.898    1457.1032   -21720.001    14.300909   0.96737059 
    4600    230.67837   -335.85547    216156.16    -20292.01    1461.1679   -21753.178    14.553916   0.96737059 
    4700    233.18296   -363.84632    216156.16   -20239.781    1477.0325   -21716.813    14.917701   0.96737059 
    4800     242.6174   -448.36297    216156.16   -20202.264    1536.7923   -21739.057    15.176149   0.96737059 
    4900    236.82532   -383.08156    216156.16   -20154.433     1500.104   -21654.537    15.415105   0.96737059 
    5000    238.21698   -298.18713    216156.16   -20219.646    1508.9191   -21728.566    15.864861   0.96737059 
    5100    240.22052   -539.21723    216156.16   -20196.096    1521.6099   -21717.706    16.068496   0.96737059 
    5200    237.47809   -387.52466    216156.16   -20228.387    1504.2388   -21732.625    16.668698   0.96737059 
    5300    233.08288   -185.46713    216156.16   -20291.074    1476.3986   -21767.472    16.735106   0.96737059 
    5400    231.90271   -446.21135    216156.16   -20279.578    1468.9231   -21748.501    17.136478   0.96737059 
    5500    228.34451   -352.81757    216156.16   -20270.822    1446.3847   -21717.206    17.639265   0.96737059 
    5600    233.64053    -571.8831    216156.16   -20290.679    1479.9308    -21770.61    17.938401   0.96737059 
    5700    233.66511   -222.22029    216156.16   -20270.984    1480.0865    -21751.07     17.96178   0.96737059 
    5800    237.10712    -369.1729    216156.16   -20250.114     1501.889   -21752.003    18.203763   0.96737059 
    5900    229.21646   -258.10847    216156.16   -20255.929    1451.9078   -21707.837     18.55916   0.96737059 
    6000    235.61199   -253.75733    216156.16   -20261.724    1492.4185   -21754.143    19.015667   0.96737059 
    6100    236.69704   -310.85288    216156.16   -20278.272    1499.2915   -21777.563    19.415071   0.96737059 
    6200    229.10231   -347.64974    216156.16   -20280.919    1451.1847   -21732.104    19.778314   0.96737059 
    6300    232.06004   -421.85668    216156.16   -20223.617    1469.9197   -21693.537    19.925126   0.96737059 
    6400    236.97843   -267.98301    216156.16   -20253.916    1501.0739    -21754.99     19.93013   0.96737059 
    6500    236.04166   -320.92586    216156.16   -20264.606    1495.1401   -21759.746    20.129314   0.96737059 
    6600    229.89586   -434.91402    216156.16    -20270.36    1456.2113   -21726.572    20.517283   0.96737059 
    6700    231.07719   -291.06175    216156.16   -20288.452    1463.6941   -21752.146    20.697312   0.96737059 
    6800    232.20027   -225.33827    216156.16   -20272.273    1470.8079   -21743.081    21.249215   0.96737059 
    6900    233.59781   -423.24481    216156.16   -20231.699    1479.6602   -21711.359    21.397997   0.96737059 
    7000    231.27703    -419.1512    216156.16   -20222.144    1464.9599   -21687.104    21.345423   0.96737059 
    7100     233.2257   -221.82225    216156.16   -20221.194    1477.3032   -21698.497    21.355086   0.96737059 
    7200    225.20822   -272.67451    216156.16   -20276.959    1426.5187   -21703.478    21.815743   0.96737059 
    7300    229.91721   -370.73698    216156.16    -20310.29    1456.3465   -21766.636     22.06396   0.96737059 
    7400     236.1984   -438.27563    216156.16   -20277.161     1496.133   -21773.294    22.301856   0.96737059 
    7500    231.74899   -438.67856    216156.16    -20239.34    1467.9494    -21707.29     22.91666   0.96737059 
    7600    240.96628   -215.43817    216156.16   -20208.081    1526.3337   -21734.415    23.525479   0.96737059 
    7700    234.99277   -477.12205    216156.16   -20244.828    1488.4962   -21733.324    23.912114   0.96737059 
    7800    234.48419   -312.62022    216156.16   -20307.926    1485.2747   -21793.201    24.233647   0.96737059 
    7900    232.52263   -391.90812    216156.16   -20271.509    1472.8498   -21744.359    24.723574   0.96737059 
    8000    236.07175    -351.4834    216156.16   -20228.137    1495.3307   -21723.468    24.778328   0.96737059 
    8100    239.42567   -474.13495    216156.16   -20203.111    1516.5752   -21719.686    25.356779   0.96737059 
    8200    239.64245   -383.97104    216156.16   -20220.812    1517.9483    -21738.76    25.817031   0.96737059 
    8300    239.14846   -325.99767    216156.16    -20181.34    1514.8193   -21696.159    26.071775   0.96737059 
    8400    239.85776   -424.15785    216156.16   -20160.554    1519.3122   -21679.866    26.425621   0.96737059 
    8500    239.70566   -470.59445    216156.16   -20199.375    1518.3487   -21717.723    26.674246   0.96737059 
    8600    234.78552   -158.31751    216156.16   -20198.266    1487.1834   -21685.449    26.690303   0.96737059 
    8700    232.73368   -322.86751    216156.16   -20218.717    1474.1867   -21692.904    27.021401   0.96737059 
    8800    230.10609   -486.56479    216156.16   -20206.019    1457.5429   -21663.562    26.963867   0.96737059 
    8900     232.5448   -436.11194    216156.16   -20204.867    1472.9902   -21677.857     27.07857   0.96737059 
    9000    236.70833   -161.74118    216156.16   -20180.326     1499.363   -21679.689    27.240408   0.96737059 
    9100    236.83179   -524.24802    216156.16   -20197.318     1500.145   -21697.463    27.691178   0.96737059 
    9200    238.53365   -313.23952    216156.16   -20159.613    1510.9249   -21670.538    27.907229   0.96737059 
    9300     237.4092   -173.68247    216156.16   -20223.082    1503.8024   -21726.885    27.910659   0.96737059 
    9400    235.65465   -336.06171    216156.16   -20208.975    1492.6887   -21701.663    28.189593   0.96737059 
    9500    235.07261   -330.25232    216156.16   -20233.691    1489.0019   -21722.692    28.489798   0.96737059 
    9600    238.07855   -368.63221    216156.16   -20234.034    1508.0422   -21742.076    29.120822   0.96737059 
    9700    231.77124   -311.18242    216156.16   -20187.326    1468.0904   -21655.416    29.304975   0.96737059 
    9800    236.68291   -396.67895    216156.16   -20152.769     1499.202   -21651.971    29.643291   0.96737059 
    9900    237.89232   -137.55896    216156.16   -20173.505    1506.8626   -21680.367     29.97051   0.96737059 
   10000    237.29548   -530.33379    216156.16   -20196.677    1503.0821   -21699.759    30.598362   0.96737059 
Loop time of 6.49769 on 128 procs for 10000 steps with 9422 atoms

Performance: 664.852 ns/day, 0.036 hours/ns, 1539.009 timesteps/s
96.5% CPU use with 128 MPI tasks x no OpenMP threads

MPI task timing breakdown:
Section |  min time  |  avg time  |  max time  |%varavg| %total
---------------------------------------------------------------
Pair    | 0.00071287 | 1.9495     | 4.8666     | 124.3 | 30.00
Neigh   | 0.00297    | 0.13835    | 0.31406    |  28.9 |  2.13
Comm    | 0.17232    | 1.7213     | 3.9586     |  85.8 | 26.49
Output  | 0.15425    | 0.15433    | 0.1552     |   0.0 |  2.38
Modify  | 0.29396    | 2.4558     | 6.0924     | 142.2 | 37.80
Other   |            | 0.07838    |            |       |  1.21

Nlocal:        73.6094 ave         148 max           0 min
Histogram: 32 5 9 16 2 0 5 16 24 19
Nghost:        618.695 ave         873 max         417 min
Histogram: 22 13 21 8 11 6 12 10 9 16
Neighs:         0.00000 ave           0 max           0 min
Histogram: 128 0 0 0 0 0 0 0 0 0
FullNghs:      7493.95 ave       16712 max           0 min
Histogram: 45 19 0 0 0 0 5 19 23 17

Total # of neighbors = 959226
Ave neighs/atom = 101.80705
Neighbor list builds = 568
Dangerous builds = 0
write_data 	    ${DIR}/data.${NAME}_eq
write_data 	    run_4/data.${NAME}_eq
write_data 	    run_4/data.ibeam_cooling_4_eq
System init for write_data ...

undump              1
unfix               4



################################################
#######         Run Simulation         #########
################################################

reset_timestep      0
timestep	    10.0
log                 ${DIR}/log.run_${NAME}
log                 run_4/log.run_${NAME}
log                 run_4/log.run_ibeam_cooling_4
