LAMMPS data file via write_data, version 16 Mar 2018, timestep = 5200000

8482 atoms
2 atom types

0.0000000000000000e+00 1.8998919999999998e+02 xlo xhi
0.0000000000000000e+00 2.6999900000000000e+01 ylo yhi
0.0000000000000000e+00 3.9850446357588666e+01 zlo zhi

Masses

1 12.01
2 18.015

Atoms # atomic

1 1 0.0000000000000000e+00 2.8417180249513345e+00 1.6770000000000000e+00 0 0 0
3 1 0.0000000000000000e+00 0.0000000000000000e+00 1.6770000000000000e+00 0 0 0
5 1 1.2304999999999999e+00 7.1042950623783474e-01 1.6770000000000000e+00 0 0 0
12 1 1.2304999999999999e+00 2.1312885187134998e+00 1.6770000000000000e+00 0 0 0
14 1 2.4609999999999999e+00 2.8417180249513345e+00 1.6770000000000000e+00 0 0 0
16 1 2.4609999999999999e+00 0.0000000000000000e+00 1.6770000000000000e+00 0 0 0
18 1 3.6915000000000000e+00 7.1042950623783474e-01 1.6770000000000000e+00 0 0 0
33 1 3.6914999999999996e+00 2.1312885187134998e+00 1.6770000000000000e+00 0 0 0
35 1 4.9219999999999997e+00 2.8417180249513341e+00 1.6770000000000000e+00 0 0 0
37 1 4.9219999999999997e+00 0.0000000000000000e+00 1.6770000000000000e+00 0 0 0
39 1 6.1524999999999999e+00 7.1042950623783430e-01 1.6770000000000000e+00 0 0 0
62 1 6.1524999999999999e+00 2.1312885187134993e+00 1.6770000000000000e+00 0 0 0
64 1 7.3829999999999991e+00 2.8417180249513345e+00 1.6770000000000000e+00 0 0 0
66 1 7.3829999999999991e+00 0.0000000000000000e+00 1.6770000000000000e+00 0 0 0
68 1 8.6134999999999984e+00 7.1042950623783430e-01 1.6770000000000000e+00 0 0 0
99 1 8.6134999999999984e+00 2.1312885187135002e+00 1.6770000000000000e+00 0 0 0
101 1 9.8439999999999994e+00 2.8417180249513336e+00 1.6770000000000000e+00 0 0 0
103 1 9.8439999999999994e+00 0.0000000000000000e+00 1.6770000000000000e+00 0 0 0
105 1 1.1074500000000000e+01 7.1042950623783341e-01 1.6770000000000000e+00 0 0 0
144 1 1.1074500000000000e+01 2.1312885187135002e+00 1.6770000000000000e+00 0 0 0
146 1 1.2305000000000000e+01 2.8417180249513336e+00 1.6770000000000000e+00 0 0 0
148 1 1.2305000000000000e+01 0.0000000000000000e+00 1.6770000000000000e+00 0 0 0
8 1 0.0000000000000000e+00 4.2625770374269996e+00 1.6770000000000000e+00 0 0 0
10 1 1.2305000000000001e+00 4.9730065436648339e+00 1.6770000000000000e+00 0 0 0
25 1 1.2304999999999999e+00 6.3938655561404989e+00 1.6770000000000000e+00 0 0 0
29 1 2.4609999999999999e+00 4.2625770374269996e+00 1.6770000000000000e+00 0 0 0
31 1 3.6914999999999996e+00 4.9730065436648339e+00 1.6770000000000000e+00 0 0 0
54 1 3.6914999999999996e+00 6.3938655561404989e+00 1.6770000000000000e+00 0 0 0
58 1 4.9219999999999997e+00 4.2625770374269987e+00 1.6770000000000000e+00 0 0 0
60 1 6.1524999999999999e+00 4.9730065436648339e+00 1.6770000000000000e+00 0 0 0
91 1 6.1524999999999999e+00 6.3938655561404989e+00 1.6770000000000000e+00 0 0 0
95 1 7.3829999999999991e+00 4.2625770374269996e+00 1.6770000000000000e+00 0 0 0
97 1 8.6135000000000002e+00 4.9730065436648339e+00 1.6770000000000000e+00 0 0 0
136 1 8.6135000000000002e+00 6.3938655561404998e+00 1.6770000000000000e+00 0 0 0
140 1 9.8439999999999994e+00 4.2625770374270004e+00 1.6770000000000000e+00 0 0 0
142 1 1.1074499999999999e+01 4.9730065436648339e+00 1.6770000000000000e+00 0 0 0
188 1 1.1074499999999999e+01 6.3938655561404989e+00 1.6770000000000000e+00 0 0 0
192 1 1.2305000000000000e+01 4.2625770374269987e+00 1.6770000000000000e+00 0 0 0
6 1 0.0000000000000000e+00 7.1042950623783341e+00 1.6770000000000000e+00 0 0 0
21 1 0.0000000000000000e+00 8.5251540748539991e+00 1.6770000000000000e+00 0 0 0
23 1 1.2304999999999997e+00 9.2355835810918343e+00 1.6770000000000000e+00 0 0 0
27 1 2.4609999999999999e+00 7.1042950623783341e+00 1.6770000000000000e+00 0 0 0
50 1 2.4609999999999994e+00 8.5251540748539991e+00 1.6770000000000000e+00 0 0 0
52 1 3.6915000000000000e+00 9.2355835810918343e+00 1.6770000000000000e+00 0 0 0
56 1 4.9219999999999997e+00 7.1042950623783341e+00 1.6770000000000000e+00 0 0 0
87 1 4.9219999999999997e+00 8.5251540748539991e+00 1.6770000000000000e+00 0 0 0
89 1 6.1524999999999999e+00 9.2355835810918343e+00 1.6770000000000000e+00 0 0 0
93 1 7.3830000000000000e+00 7.1042950623783341e+00 1.6770000000000000e+00 0 0 0
132 1 7.3830000000000000e+00 8.5251540748539991e+00 1.6770000000000000e+00 0 0 0
134 1 8.6134999999999984e+00 9.2355835810918343e+00 1.6770000000000000e+00 0 0 0
138 1 9.8439999999999994e+00 7.1042950623783341e+00 1.6770000000000000e+00 0 0 0
184 1 9.8439999999999994e+00 8.5251540748539973e+00 1.6770000000000000e+00 0 0 0
186 1 1.1074499999999999e+01 9.2355835810918343e+00 1.6770000000000000e+00 0 0 0
190 1 1.2305000000000000e+01 7.1042950623783341e+00 1.6770000000000000e+00 0 0 0
235 1 1.2305000000000000e+01 8.5251540748539991e+00 1.6770000000000000e+00 0 0 0
19 1 0.0000000000000000e+00 1.1366872099805333e+01 1.6770000000000000e+00 0 0 0
42 1 0.0000000000000000e+00 1.2787731112280998e+01 1.6770000000000000e+00 0 0 0
44 1 1.2305000000000001e+00 1.3498160618518833e+01 1.6770000000000000e+00 0 0 0
46 1 1.2304999999999997e+00 1.0656442593567498e+01 1.6770000000000000e+00 0 0 0
48 1 2.4609999999999999e+00 1.1366872099805335e+01 1.6770000000000000e+00 0 0 0
79 1 2.4609999999999999e+00 1.2787731112280998e+01 1.6770000000000000e+00 0 0 0
81 1 3.6915000000000000e+00 1.3498160618518833e+01 1.6770000000000000e+00 0 0 0
83 1 3.6914999999999996e+00 1.0656442593567499e+01 1.6770000000000000e+00 0 0 0
85 1 4.9219999999999997e+00 1.1366872099805333e+01 1.6770000000000000e+00 0 0 0
124 1 4.9219999999999997e+00 1.2787731112281000e+01 1.6770000000000000e+00 0 0 0
126 1 6.1524999999999990e+00 1.3498160618518833e+01 1.6770000000000000e+00 0 0 0
128 1 6.1524999999999999e+00 1.0656442593567499e+01 1.6770000000000000e+00 0 0 0
130 1 7.3829999999999991e+00 1.1366872099805335e+01 1.6770000000000000e+00 0 0 0
176 1 7.3829999999999991e+00 1.2787731112280998e+01 1.6770000000000000e+00 0 0 0
178 1 8.6135000000000002e+00 1.3498160618518835e+01 1.6770000000000000e+00 0 0 0
180 1 8.6134999999999984e+00 1.0656442593567498e+01 1.6770000000000000e+00 0 0 0
182 1 9.8439999999999994e+00 1.1366872099805335e+01 1.6770000000000000e+00 0 0 0
227 1 9.8439999999999994e+00 1.2787731112280998e+01 1.6770000000000000e+00 0 0 0
229 1 1.1074499999999999e+01 1.3498160618518833e+01 1.6770000000000000e+00 0 0 0
231 1 1.1074500000000000e+01 1.0656442593567498e+01 1.6770000000000000e+00 0 0 0
233 1 1.2304999999999998e+01 1.1366872099805333e+01 1.6770000000000000e+00 0 0 0
270 1 1.2305000000000000e+01 1.2787731112280998e+01 1.6770000000000000e+00 0 0 0
2 1 0.0000000000000000e+00 1.4208590124756650e+00 5.0310000000000006e+00 0 0 0
4 1 0.0000000000000000e+00 0.0000000000000000e+00 5.0310000000000006e+00 0 0 0
13 1 1.2304999999999999e+00 2.1312885187134998e+00 5.0310000000000006e+00 0 0 0
15 1 2.4609999999999999e+00 1.4208590124756650e+00 5.0310000000000006e+00 0 0 0
17 1 2.4609999999999999e+00 0.0000000000000000e+00 5.0310000000000006e+00 0 0 0
34 1 3.6914999999999996e+00 2.1312885187134998e+00 5.0310000000000006e+00 0 0 0
340 1 0.0000000000000000e+00 2.8417180249513345e+00 8.3849999999999998e+00 0 0 0
341 1 0.0000000000000000e+00 0.0000000000000000e+00 8.3849999999999998e+00 0 0 0
342 1 1.2304999999999999e+00 7.1042950623783474e-01 8.3849999999999998e+00 0 0 0
346 1 1.2304999999999999e+00 2.1312885187134998e+00 8.3849999999999998e+00 0 0 0
347 1 2.4609999999999999e+00 2.8417180249513345e+00 8.3849999999999998e+00 0 0 0
348 1 2.4609999999999999e+00 0.0000000000000000e+00 8.3849999999999998e+00 0 0 0
349 1 3.6915000000000000e+00 7.1042950623783474e-01 8.3849999999999998e+00 0 0 0
357 1 3.6914999999999996e+00 2.1312885187134998e+00 8.3849999999999998e+00 0 0 0
36 1 4.9219999999999997e+00 1.4208590124756650e+00 5.0310000000000006e+00 0 0 0
38 1 4.9219999999999997e+00 0.0000000000000000e+00 5.0310000000000006e+00 0 0 0
63 1 6.1524999999999999e+00 2.1312885187134993e+00 5.0310000000000006e+00 0 0 0
65 1 7.3829999999999991e+00 1.4208590124756659e+00 5.0310000000000006e+00 0 0 0
67 1 7.3829999999999991e+00 0.0000000000000000e+00 5.0310000000000006e+00 0 0 0
358 1 4.9219999999999997e+00 2.8417180249513341e+00 8.3849999999999998e+00 0 0 0
359 1 4.9219999999999997e+00 0.0000000000000000e+00 8.3849999999999998e+00 0 0 0
360 1 6.1524999999999999e+00 7.1042950623783430e-01 8.3849999999999998e+00 0 0 0
372 1 6.1524999999999999e+00 2.1312885187134993e+00 8.3849999999999998e+00 0 0 0
373 1 7.3829999999999991e+00 2.8417180249513345e+00 8.3849999999999998e+00 0 0 0
374 1 7.3829999999999991e+00 0.0000000000000000e+00 8.3849999999999998e+00 0 0 0
100 1 8.6134999999999984e+00 2.1312885187135002e+00 5.0310000000000006e+00 0 0 0
102 1 9.8439999999999994e+00 1.4208590124756659e+00 5.0310000000000006e+00 0 0 0
104 1 9.8439999999999994e+00 0.0000000000000000e+00 5.0310000000000006e+00 0 0 0
145 1 1.1074500000000000e+01 2.1312885187135002e+00 5.0310000000000006e+00 0 0 0
147 1 1.2305000000000000e+01 1.4208590124756650e+00 5.0310000000000006e+00 0 0 0
149 1 1.2305000000000000e+01 0.0000000000000000e+00 5.0310000000000006e+00 0 0 0
375 1 8.6134999999999984e+00 7.1042950623783430e-01 8.3849999999999998e+00 0 0 0
391 1 8.6134999999999984e+00 2.1312885187135002e+00 8.3849999999999998e+00 0 0 0
392 1 9.8439999999999994e+00 2.8417180249513336e+00 8.3849999999999998e+00 0 0 0
393 1 9.8439999999999994e+00 0.0000000000000000e+00 8.3849999999999998e+00 0 0 0
394 1 1.1074500000000000e+01 7.1042950623783341e-01 8.3849999999999998e+00 0 0 0
414 1 1.1074500000000000e+01 2.1312885187135002e+00 8.3849999999999998e+00 0 0 0
415 1 1.2305000000000000e+01 2.8417180249513336e+00 8.3849999999999998e+00 0 0 0
416 1 1.2305000000000000e+01 0.0000000000000000e+00 8.3849999999999998e+00 0 0 0
7 1 0.0000000000000000e+00 5.6834360499026646e+00 5.0310000000000006e+00 0 0 0
9 1 0.0000000000000000e+00 4.2625770374269996e+00 5.0310000000000006e+00 0 0 0
11 1 1.2304999999999999e+00 3.5521475311891648e+00 5.0310000000000006e+00 0 0 0
26 1 1.2304999999999999e+00 6.3938655561404989e+00 5.0310000000000006e+00 0 0 0
28 1 2.4609999999999999e+00 5.6834360499026646e+00 5.0310000000000006e+00 0 0 0
30 1 2.4609999999999999e+00 4.2625770374269996e+00 5.0310000000000006e+00 0 0 0
32 1 3.6914999999999996e+00 3.5521475311891648e+00 5.0310000000000006e+00 0 0 0
55 1 3.6914999999999996e+00 6.3938655561404989e+00 5.0310000000000006e+00 0 0 0
344 1 0.0000000000000000e+00 4.2625770374269996e+00 8.3849999999999998e+00 0 0 0
345 1 1.2305000000000001e+00 4.9730065436648339e+00 8.3849999999999998e+00 0 0 0
353 1 1.2304999999999999e+00 6.3938655561404989e+00 8.3849999999999998e+00 0 0 0
355 1 2.4609999999999999e+00 4.2625770374269996e+00 8.3849999999999998e+00 0 0 0
356 1 3.6914999999999996e+00 4.9730065436648339e+00 8.3849999999999998e+00 0 0 0
368 1 3.6914999999999996e+00 6.3938655561404989e+00 8.3849999999999998e+00 0 0 0
57 1 4.9219999999999997e+00 5.6834360499026655e+00 5.0310000000000006e+00 0 0 0
59 1 4.9219999999999997e+00 4.2625770374269987e+00 5.0310000000000006e+00 0 0 0
61 1 6.1524999999999999e+00 3.5521475311891653e+00 5.0310000000000006e+00 0 0 0
92 1 6.1524999999999999e+00 6.3938655561404989e+00 5.0310000000000006e+00 0 0 0
94 1 7.3829999999999991e+00 5.6834360499026655e+00 5.0310000000000006e+00 0 0 0
96 1 7.3829999999999991e+00 4.2625770374269996e+00 5.0310000000000006e+00 0 0 0
370 1 4.9219999999999997e+00 4.2625770374269987e+00 8.3849999999999998e+00 0 0 0
371 1 6.1524999999999999e+00 4.9730065436648339e+00 8.3849999999999998e+00 0 0 0
387 1 6.1524999999999999e+00 6.3938655561404989e+00 8.3849999999999998e+00 0 0 0
389 1 7.3829999999999991e+00 4.2625770374269996e+00 8.3849999999999998e+00 0 0 0
98 1 8.6134999999999984e+00 3.5521475311891662e+00 5.0310000000000006e+00 0 0 0
137 1 8.6135000000000002e+00 6.3938655561404998e+00 5.0310000000000006e+00 0 0 0
139 1 9.8439999999999994e+00 5.6834360499026646e+00 5.0310000000000006e+00 0 0 0
141 1 9.8439999999999994e+00 4.2625770374270004e+00 5.0310000000000006e+00 0 0 0
143 1 1.1074500000000000e+01 3.5521475311891644e+00 5.0310000000000006e+00 0 0 0
189 1 1.1074499999999999e+01 6.3938655561404989e+00 5.0310000000000006e+00 0 0 0
191 1 1.2305000000000000e+01 5.6834360499026646e+00 5.0310000000000006e+00 0 0 0
193 1 1.2305000000000000e+01 4.2625770374269987e+00 5.0310000000000006e+00 0 0 0
390 1 8.6135000000000002e+00 4.9730065436648339e+00 8.3849999999999998e+00 0 0 0
410 1 8.6135000000000002e+00 6.3938655561404998e+00 8.3849999999999998e+00 0 0 0
412 1 9.8439999999999994e+00 4.2625770374270004e+00 8.3849999999999998e+00 0 0 0
413 1 1.1074499999999999e+01 4.9730065436648339e+00 8.3849999999999998e+00 0 0 0
436 1 1.1074499999999999e+01 6.3938655561404989e+00 8.3849999999999998e+00 0 0 0
438 1 1.2305000000000000e+01 4.2625770374269987e+00 8.3849999999999998e+00 0 0 0
20 1 0.0000000000000000e+00 9.9460130873296642e+00 5.0310000000000006e+00 0 0 0
22 1 0.0000000000000000e+00 8.5251540748539991e+00 5.0310000000000006e+00 0 0 0
24 1 1.2304999999999997e+00 7.8147245686161639e+00 5.0310000000000006e+00 0 0 0
49 1 2.4609999999999994e+00 9.9460130873296642e+00 5.0310000000000006e+00 0 0 0
51 1 2.4609999999999994e+00 8.5251540748539991e+00 5.0310000000000006e+00 0 0 0
53 1 3.6914999999999996e+00 7.8147245686161648e+00 5.0310000000000006e+00 0 0 0
343 1 0.0000000000000000e+00 7.1042950623783341e+00 8.3849999999999998e+00 0 0 0
351 1 0.0000000000000000e+00 8.5251540748539991e+00 8.3849999999999998e+00 0 0 0
352 1 1.2304999999999997e+00 9.2355835810918343e+00 8.3849999999999998e+00 0 0 0
354 1 2.4609999999999999e+00 7.1042950623783341e+00 8.3849999999999998e+00 0 0 0
366 1 2.4609999999999994e+00 8.5251540748539991e+00 8.3849999999999998e+00 0 0 0
367 1 3.6915000000000000e+00 9.2355835810918343e+00 8.3849999999999998e+00 0 0 0
86 1 4.9219999999999997e+00 9.9460130873296659e+00 5.0310000000000006e+00 0 0 0
88 1 4.9219999999999997e+00 8.5251540748539991e+00 5.0310000000000006e+00 0 0 0
90 1 6.1524999999999999e+00 7.8147245686161657e+00 5.0310000000000006e+00 0 0 0
131 1 7.3830000000000000e+00 9.9460130873296642e+00 5.0310000000000006e+00 0 0 0
133 1 7.3830000000000000e+00 8.5251540748539991e+00 5.0310000000000006e+00 0 0 0
369 1 4.9219999999999997e+00 7.1042950623783341e+00 8.3849999999999998e+00 0 0 0
385 1 4.9219999999999997e+00 8.5251540748539991e+00 8.3849999999999998e+00 0 0 0
386 1 6.1524999999999999e+00 9.2355835810918343e+00 8.3849999999999998e+00 0 0 0
388 1 7.3830000000000000e+00 7.1042950623783341e+00 8.3849999999999998e+00 0 0 0
408 1 7.3830000000000000e+00 8.5251540748539991e+00 8.3849999999999998e+00 0 0 0
135 1 8.6135000000000002e+00 7.8147245686161639e+00 5.0310000000000006e+00 0 0 0
183 1 9.8439999999999994e+00 9.9460130873296642e+00 5.0310000000000006e+00 0 0 0
185 1 9.8439999999999994e+00 8.5251540748539973e+00 5.0310000000000006e+00 0 0 0
187 1 1.1074500000000000e+01 7.8147245686161648e+00 5.0310000000000006e+00 0 0 0
234 1 1.2305000000000000e+01 9.9460130873296642e+00 5.0310000000000006e+00 0 0 0
236 1 1.2305000000000000e+01 8.5251540748539991e+00 5.0310000000000006e+00 0 0 0
409 1 8.6134999999999984e+00 9.2355835810918343e+00 8.3849999999999998e+00 0 0 0
411 1 9.8439999999999994e+00 7.1042950623783341e+00 8.3849999999999998e+00 0 0 0
434 1 9.8439999999999994e+00 8.5251540748539973e+00 8.3849999999999998e+00 0 0 0
435 1 1.1074499999999999e+01 9.2355835810918343e+00 8.3849999999999998e+00 0 0 0
437 1 1.2305000000000000e+01 7.1042950623783341e+00 8.3849999999999998e+00 0 0 0
459 1 1.2305000000000000e+01 8.5251540748539991e+00 8.3849999999999998e+00 0 0 0
43 1 0.0000000000000000e+00 1.2787731112280998e+01 5.0310000000000006e+00 0 0 0
45 1 1.2304999999999997e+00 1.2077301606043164e+01 5.0310000000000006e+00 0 0 0
47 1 1.2304999999999997e+00 1.0656442593567498e+01 5.0310000000000006e+00 0 0 0
80 1 2.4609999999999999e+00 1.2787731112280998e+01 5.0310000000000006e+00 0 0 0
82 1 3.6914999999999996e+00 1.2077301606043164e+01 5.0310000000000006e+00 0 0 0
84 1 3.6914999999999996e+00 1.0656442593567499e+01 5.0310000000000006e+00 0 0 0
350 1 0.0000000000000000e+00 1.1366872099805333e+01 8.3849999999999998e+00 0 0 0
362 1 0.0000000000000000e+00 1.2787731112280998e+01 8.3849999999999998e+00 0 0 0
363 1 1.2305000000000001e+00 1.3498160618518833e+01 8.3849999999999998e+00 0 0 0
364 1 1.2304999999999997e+00 1.0656442593567498e+01 8.3849999999999998e+00 0 0 0
365 1 2.4609999999999999e+00 1.1366872099805335e+01 8.3849999999999998e+00 0 0 0
381 1 2.4609999999999999e+00 1.2787731112280998e+01 8.3849999999999998e+00 0 0 0
382 1 3.6915000000000000e+00 1.3498160618518833e+01 8.3849999999999998e+00 0 0 0
383 1 3.6914999999999996e+00 1.0656442593567499e+01 8.3849999999999998e+00 0 0 0
125 1 4.9219999999999997e+00 1.2787731112281000e+01 5.0310000000000006e+00 0 0 0
127 1 6.1524999999999999e+00 1.2077301606043164e+01 5.0310000000000006e+00 0 0 0
129 1 6.1524999999999999e+00 1.0656442593567499e+01 5.0310000000000006e+00 0 0 0
177 1 7.3829999999999991e+00 1.2787731112280998e+01 5.0310000000000006e+00 0 0 0
384 1 4.9219999999999997e+00 1.1366872099805333e+01 8.3849999999999998e+00 0 0 0
404 1 4.9219999999999997e+00 1.2787731112281000e+01 8.3849999999999998e+00 0 0 0
405 1 6.1524999999999990e+00 1.3498160618518833e+01 8.3849999999999998e+00 0 0 0
406 1 6.1524999999999999e+00 1.0656442593567499e+01 8.3849999999999998e+00 0 0 0
407 1 7.3829999999999991e+00 1.1366872099805335e+01 8.3849999999999998e+00 0 0 0
430 1 7.3829999999999991e+00 1.2787731112280998e+01 8.3849999999999998e+00 0 0 0
179 1 8.6135000000000002e+00 1.2077301606043164e+01 5.0310000000000006e+00 0 0 0
181 1 8.6134999999999984e+00 1.0656442593567498e+01 5.0310000000000006e+00 0 0 0
228 1 9.8439999999999994e+00 1.2787731112280998e+01 5.0310000000000006e+00 0 0 0
230 1 1.1074499999999999e+01 1.2077301606043164e+01 5.0310000000000006e+00 0 0 0
232 1 1.1074500000000000e+01 1.0656442593567498e+01 5.0310000000000006e+00 0 0 0
271 1 1.2305000000000000e+01 1.2787731112280998e+01 5.0310000000000006e+00 0 0 0
431 1 8.6135000000000002e+00 1.3498160618518835e+01 8.3849999999999998e+00 0 0 0
432 1 8.6134999999999984e+00 1.0656442593567498e+01 8.3849999999999998e+00 0 0 0
433 1 9.8439999999999994e+00 1.1366872099805335e+01 8.3849999999999998e+00 0 0 0
455 1 9.8439999999999994e+00 1.2787731112280998e+01 8.3849999999999998e+00 0 0 0
456 1 1.1074499999999999e+01 1.3498160618518833e+01 8.3849999999999998e+00 0 0 0
457 1 1.1074500000000000e+01 1.0656442593567498e+01 8.3849999999999998e+00 0 0 0
458 1 1.2304999999999998e+01 1.1366872099805333e+01 8.3849999999999998e+00 0 0 0
476 1 1.2305000000000000e+01 1.2787731112280998e+01 8.3849999999999998e+00 0 0 0
4112 2 5.7272737727529242e+00 2.5172390690789306e+00 1.1403627991627575e+01 0 -2 0
5518 2 5.6489006519060121e+00 2.7982600153691926e+00 1.4391105334724825e+01 0 1 0
2357 2 8.3761316334701394e+00 3.1683560788606742e+00 1.3567069192059883e+01 0 0 0
2250 2 8.2944508431739568e+00 3.1807427778819486e+00 1.0835462034265849e+01 0 0 0
5942 2 9.8998943975194162e+00 8.8406178888703868e-01 1.3837413081856234e+01 0 0 0
1609 2 1.1186026044351728e+01 1.1208041956101896e+01 1.3958787496678566e+01 0 -1 0
3777 2 1.2024275369397079e+00 4.3481412094929590e+00 1.3691747525335936e+01 0 0 0
4014 2 9.6316811422211424e-01 4.0597318243701439e+00 1.0990490634294989e+01 0 0 0
1618 2 3.9642302793307214e+00 4.8888302820517815e+00 1.3445703357108105e+01 0 0 0
1591 2 3.7425815403663325e+00 4.5644482496050598e+00 1.0613405288307041e+01 0 -3 0
2971 2 4.0454533102527277e+00 7.5461208326169311e+00 1.0662096971920334e+01 0 -2 0
5622 2 1.1413191308104894e+01 6.3078480924764939e+00 1.1004473468858667e+01 0 0 0
5593 2 4.3989641321862631e+00 2.4767675557813246e-01 1.4072788253778146e+01 0 0 0
4120 2 8.6839585798462178e+00 5.8894579535878959e+00 1.1138321387241392e+01 0 2 0
2402 2 8.9674101581256647e+00 5.8830857906565877e+00 1.4110070133391241e+01 0 -1 0
1637 2 1.1729559242381537e+01 6.2871208056261585e+00 1.3826115003908779e+01 0 2 0
2337 2 2.3078814912909360e+00 9.6786051019987518e+00 1.1321654141811928e+01 0 0 0
1528 2 2.7211998515418014e+00 9.6757444131364529e+00 1.3961296919347483e+01 0 -2 0
6020 2 8.1005656462663183e+00 1.0960912332725151e+01 1.3926003172616635e+01 0 1 0
4007 2 4.4609478601060824e+00 7.4816446219992381e+00 1.3545895345175570e+01 0 -1 -1
4202 2 7.1011161978046022e+00 8.2642586319570093e+00 1.3954818944352883e+01 0 2 0
3002 2 6.9312719839528381e+00 8.1490430074019606e+00 1.1275790828501941e+01 0 -2 0
1635 2 8.0441218879722296e+00 1.0764373740403039e+01 1.1311867034297439e+01 0 1 0
2424 2 3.4354779210108415e+00 1.2342626590368598e+01 1.4370512124731993e+01 0 -1 0
2385 2 3.3281769777486505e+00 1.2269130791572167e+01 1.1597261366383240e+01 0 0 0
2437 2 6.0411511855120033e+00 1.2834440811427532e+01 1.1136177418400168e+01 0 0 0
2411 2 6.3434043744139013e+00 1.2893172224375707e+01 1.3869141345233002e+01 0 0 0
3214 2 1.0071599912783427e+01 8.8174504247456120e-01 1.0903669688833121e+01 0 -1 0
3850 2 1.1129982691957478e+01 1.0815275435297730e+01 1.1056455647384023e+01 0 2 0
1644 2 1.2663157739029138e+01 8.7070408354373434e+00 1.1079657172319147e+01 0 -1 1
5678 2 1.2519065007704050e+01 1.4694556995984822e+00 1.3514750786880004e+01 0 -2 0
40 1 0.0000000000000000e+00 1.5629449137232333e+01 1.6770000000000000e+00 0 0 0
75 1 1.2305000000000001e+00 1.4919019630994498e+01 1.6770000000000000e+00 0 0 0
77 1 2.4610000000000003e+00 1.5629449137232331e+01 1.6770000000000000e+00 0 0 0
120 1 3.6915000000000000e+00 1.4919019630994498e+01 1.6770000000000000e+00 0 0 0
122 1 4.9219999999999988e+00 1.5629449137232333e+01 1.6770000000000000e+00 0 0 0
172 1 6.1524999999999990e+00 1.4919019630994498e+01 1.6770000000000000e+00 0 0 0
174 1 7.3829999999999991e+00 1.5629449137232333e+01 1.6770000000000000e+00 0 0 0
223 1 8.6135000000000002e+00 1.4919019630994498e+01 1.6770000000000000e+00 0 0 0
225 1 9.8439999999999994e+00 1.5629449137232331e+01 1.6770000000000000e+00 0 0 0
266 1 1.1074499999999999e+01 1.4919019630994498e+01 1.6770000000000000e+00 0 0 0
268 1 1.2305000000000000e+01 1.5629449137232337e+01 1.6770000000000000e+00 0 0 0
69 1 0.0000000000000000e+00 1.9892026174659332e+01 1.6770000000000000e+00 0 0 0
71 1 0.0000000000000000e+00 1.7050308149707998e+01 1.6770000000000000e+00 0 0 0
73 1 1.2305000000000001e+00 1.7760737655945832e+01 1.6770000000000000e+00 0 0 0
112 1 1.2305000000000001e+00 1.9181596668421498e+01 1.6770000000000000e+00 0 0 0
114 1 2.4609999999999994e+00 1.9892026174659332e+01 1.6770000000000000e+00 0 0 0
116 1 2.4610000000000003e+00 1.7050308149707998e+01 1.6770000000000000e+00 0 0 0
118 1 3.6914999999999996e+00 1.7760737655945832e+01 1.6770000000000000e+00 0 0 0
164 1 3.6914999999999996e+00 1.9181596668421498e+01 1.6770000000000000e+00 0 0 0
166 1 4.9219999999999997e+00 1.9892026174659332e+01 1.6770000000000000e+00 0 0 0
168 1 4.9219999999999988e+00 1.7050308149707998e+01 1.6770000000000000e+00 0 0 0
170 1 6.1524999999999999e+00 1.7760737655945832e+01 1.6770000000000000e+00 0 0 0
215 1 6.1524999999999999e+00 1.9181596668421498e+01 1.6770000000000000e+00 0 0 0
217 1 7.3829999999999991e+00 1.9892026174659332e+01 1.6770000000000000e+00 0 0 0
219 1 7.3830000000000000e+00 1.7050308149707998e+01 1.6770000000000000e+00 0 0 0
221 1 8.6134999999999984e+00 1.7760737655945832e+01 1.6770000000000000e+00 0 0 0
258 1 8.6135000000000002e+00 1.9181596668421498e+01 1.6770000000000000e+00 0 0 0
260 1 9.8439999999999994e+00 1.9892026174659335e+01 1.6770000000000000e+00 0 0 0
262 1 9.8439999999999994e+00 1.7050308149707998e+01 1.6770000000000000e+00 0 0 0
264 1 1.1074500000000000e+01 1.7760737655945835e+01 1.6770000000000000e+00 0 0 0
293 1 1.1074499999999999e+01 1.9181596668421498e+01 1.6770000000000000e+00 0 0 0
295 1 1.2305000000000001e+01 1.9892026174659335e+01 1.6770000000000000e+00 0 0 0
297 1 1.2304999999999998e+01 1.7050308149707998e+01 1.6770000000000000e+00 0 0 0
108 1 0.0000000000000000e+00 2.1312885187134999e+01 1.6770000000000000e+00 0 0 0
110 1 1.2304999999999993e+00 2.2023314693372832e+01 1.6770000000000000e+00 0 0 0
156 1 1.2304999999999993e+00 2.3444173705848499e+01 1.6770000000000000e+00 0 0 0
160 1 2.4609999999999994e+00 2.1312885187134995e+01 1.6770000000000000e+00 0 0 0
162 1 3.6914999999999996e+00 2.2023314693372832e+01 1.6770000000000000e+00 0 0 0
207 1 3.6915000000000004e+00 2.3444173705848499e+01 1.6770000000000000e+00 0 0 0
211 1 4.9220000000000006e+00 2.1312885187134995e+01 1.6770000000000000e+00 0 0 0
213 1 6.1524999999999990e+00 2.2023314693372832e+01 1.6770000000000000e+00 0 0 0
250 1 6.1524999999999999e+00 2.3444173705848499e+01 1.6770000000000000e+00 0 0 0
254 1 7.3829999999999991e+00 2.1312885187134999e+01 1.6770000000000000e+00 0 0 0
256 1 8.6135000000000002e+00 2.2023314693372836e+01 1.6770000000000000e+00 0 0 0
285 1 8.6134999999999984e+00 2.3444173705848499e+01 1.6770000000000000e+00 0 0 0
289 1 9.8439999999999994e+00 2.1312885187134999e+01 1.6770000000000000e+00 0 0 0
291 1 1.1074500000000000e+01 2.2023314693372836e+01 1.6770000000000000e+00 0 0 0
312 1 1.1074500000000000e+01 2.3444173705848499e+01 1.6770000000000000e+00 0 0 0
316 1 1.2305000000000000e+01 2.1312885187134999e+01 1.6770000000000000e+00 0 0 0
106 1 0.0000000000000000e+00 2.4154603212086332e+01 1.6770000000000000e+00 0 0 0
152 1 0.0000000000000000e+00 2.5575462224561996e+01 1.6770000000000000e+00 0 0 0
154 1 1.2305000000000001e+00 2.6285891730799833e+01 1.6770000000000000e+00 0 0 0
158 1 2.4609999999999994e+00 2.4154603212086332e+01 1.6770000000000000e+00 0 0 0
203 1 2.4610000000000003e+00 2.5575462224561996e+01 1.6770000000000000e+00 0 0 0
205 1 3.6914999999999987e+00 2.6285891730799833e+01 1.6770000000000000e+00 0 0 0
209 1 4.9219999999999988e+00 2.4154603212086332e+01 1.6770000000000000e+00 0 0 0
246 1 4.9219999999999997e+00 2.5575462224561996e+01 1.6770000000000000e+00 0 0 0
248 1 6.1524999999999999e+00 2.6285891730799836e+01 1.6770000000000000e+00 0 0 0
252 1 7.3830000000000000e+00 2.4154603212086336e+01 1.6770000000000000e+00 0 0 0
281 1 7.3829999999999991e+00 2.5575462224561996e+01 1.6770000000000000e+00 0 0 0
283 1 8.6135000000000019e+00 2.6285891730799836e+01 1.6770000000000000e+00 0 0 0
287 1 9.8440000000000012e+00 2.4154603212086336e+01 1.6770000000000000e+00 0 0 0
308 1 9.8439999999999994e+00 2.5575462224561999e+01 1.6770000000000000e+00 0 0 0
310 1 1.1074500000000000e+01 2.6285891730799833e+01 1.6770000000000000e+00 0 0 0
314 1 1.2305000000000000e+01 2.4154603212086332e+01 1.6770000000000000e+00 0 0 0
327 1 1.2305000000000000e+01 2.5575462224561999e+01 1.6770000000000000e+00 0 0 0
41 1 0.0000000000000000e+00 1.4208590124756665e+01 5.0310000000000006e+00 0 0 0
74 1 1.2305000000000001e+00 1.6339878643470165e+01 5.0310000000000006e+00 0 0 0
76 1 1.2305000000000001e+00 1.4919019630994498e+01 5.0310000000000006e+00 0 0 0
78 1 2.4609999999999999e+00 1.4208590124756665e+01 5.0310000000000006e+00 0 0 0
119 1 3.6915000000000000e+00 1.6339878643470165e+01 5.0310000000000006e+00 0 0 0
121 1 3.6915000000000000e+00 1.4919019630994498e+01 5.0310000000000006e+00 0 0 0
361 1 0.0000000000000000e+00 1.5629449137232333e+01 8.3849999999999998e+00 0 0 0
379 1 1.2305000000000001e+00 1.4919019630994498e+01 8.3849999999999998e+00 0 0 0
380 1 2.4610000000000003e+00 1.5629449137232331e+01 8.3849999999999998e+00 0 0 0
402 1 3.6915000000000000e+00 1.4919019630994498e+01 8.3849999999999998e+00 0 0 0
123 1 4.9219999999999997e+00 1.4208590124756663e+01 5.0310000000000006e+00 0 0 0
171 1 6.1524999999999999e+00 1.6339878643470165e+01 5.0310000000000006e+00 0 0 0
173 1 6.1524999999999990e+00 1.4919019630994498e+01 5.0310000000000006e+00 0 0 0
175 1 7.3830000000000000e+00 1.4208590124756665e+01 5.0310000000000006e+00 0 0 0
403 1 4.9219999999999988e+00 1.5629449137232333e+01 8.3849999999999998e+00 0 0 0
428 1 6.1524999999999990e+00 1.4919019630994498e+01 8.3849999999999998e+00 0 0 0
429 1 7.3829999999999991e+00 1.5629449137232333e+01 8.3849999999999998e+00 0 0 0
222 1 8.6134999999999984e+00 1.6339878643470165e+01 5.0310000000000006e+00 0 0 0
224 1 8.6135000000000002e+00 1.4919019630994498e+01 5.0310000000000006e+00 0 0 0
226 1 9.8439999999999994e+00 1.4208590124756665e+01 5.0310000000000006e+00 0 0 0
265 1 1.1074499999999999e+01 1.6339878643470161e+01 5.0310000000000006e+00 0 0 0
267 1 1.1074499999999999e+01 1.4919019630994498e+01 5.0310000000000006e+00 0 0 0
269 1 1.2304999999999998e+01 1.4208590124756661e+01 5.0310000000000006e+00 0 0 0
453 1 8.6135000000000002e+00 1.4919019630994498e+01 8.3849999999999998e+00 0 0 0
454 1 9.8439999999999994e+00 1.5629449137232331e+01 8.3849999999999998e+00 0 0 0
474 1 1.1074499999999999e+01 1.4919019630994498e+01 8.3849999999999998e+00 0 0 0
475 1 1.2305000000000000e+01 1.5629449137232337e+01 8.3849999999999998e+00 0 0 0
70 1 0.0000000000000000e+00 1.8471167162183665e+01 5.0310000000000006e+00 0 0 0
72 1 0.0000000000000000e+00 1.7050308149707998e+01 5.0310000000000006e+00 0 0 0
113 1 1.2305000000000001e+00 1.9181596668421498e+01 5.0310000000000006e+00 0 0 0
115 1 2.4610000000000003e+00 1.8471167162183662e+01 5.0310000000000006e+00 0 0 0
117 1 2.4610000000000003e+00 1.7050308149707998e+01 5.0310000000000006e+00 0 0 0
165 1 3.6914999999999996e+00 1.9181596668421498e+01 5.0310000000000006e+00 0 0 0
376 1 0.0000000000000000e+00 1.9892026174659332e+01 8.3849999999999998e+00 0 0 0
377 1 0.0000000000000000e+00 1.7050308149707998e+01 8.3849999999999998e+00 0 0 0
378 1 1.2305000000000001e+00 1.7760737655945832e+01 8.3849999999999998e+00 0 0 0
398 1 1.2305000000000001e+00 1.9181596668421498e+01 8.3849999999999998e+00 0 0 0
399 1 2.4609999999999994e+00 1.9892026174659332e+01 8.3849999999999998e+00 0 0 0
400 1 2.4610000000000003e+00 1.7050308149707998e+01 8.3849999999999998e+00 0 0 0
401 1 3.6914999999999996e+00 1.7760737655945832e+01 8.3849999999999998e+00 0 0 0
424 1 3.6914999999999996e+00 1.9181596668421498e+01 8.3849999999999998e+00 0 0 0
167 1 4.9220000000000006e+00 1.8471167162183662e+01 5.0310000000000006e+00 0 0 0
169 1 4.9219999999999988e+00 1.7050308149707998e+01 5.0310000000000006e+00 0 0 0
216 1 6.1524999999999999e+00 1.9181596668421498e+01 5.0310000000000006e+00 0 0 0