

### IMPORT ATOMS ###
read_data ../Box_Setup/data.Ibeam_240K
  orthogonal box = (0 0 0) to (157.504 40.4305 33.9212)
  10 by 4 by 4 MPI processor grid
  reading atoms ...
  9248 atoms
  reading velocities ...
  9248 velocities
group water type 2
1952 atoms in group water
group graphite type 1
7296 atoms in group graphite


# Define potential
#
pair_style          sw
pair_coeff * * MLC_e.sw C mW

# Add velocity/set timestep
#

fix		1 graphite setforce 0.0 0.0 0.0
velocity 	graphite set 0.0 0.0 0.0
velocity            water create ${START_TEMP} ${SEED} rot yes dist gaussian
velocity            water create 240 ${SEED} rot yes dist gaussian
velocity            water create 240 8315 rot yes dist gaussian
timestep            5.0

# Define output
#
compute 1 water msd
compute 2 water temp


thermo	            100
thermo_style custom step c_2 press vol etotal ke pe c_1[4] density

# Neighbor lists
#
neigh_modify        delay 0 every 1 check yes


# Set fixes
#
fix                 2 water momentum 10 linear 1 1 1 rescale
fix                 3 all nve
fix                 4 water temp/csvr ${START_TEMP} ${START_TEMP} 500.0 928347
fix                 4 water temp/csvr 240 ${START_TEMP} 500.0 928347
fix                 4 water temp/csvr 240 240 500.0 928347

# Run 0.05 ns equilibration
#
dump                1 all custom 100 ${DIR}/eq.${NAME}.dump id type x y z vx vy vz
dump                1 all custom 100 run_29/eq.${NAME}.dump id type x y z vx vy vz
dump                1 all custom 100 run_29/eq.ibeam_cooling_29.dump id type x y z vx vy vz
run                 10000
Neighbor list info ...
  update every 1 steps, delay 0 steps, check yes
  max neighbors/atom: 2000, page size: 100000
  master list distance cutoff = 6.67472
  ghost atom cutoff = 6.67472
  binsize = 3.33736, bins = 48 13 11
  1 neighbor lists, perpetual/occasional/extra = 1 0 0
  (1) pair sw, perpetual
      attributes: full, newton on
      pair build: full/bin/atomonly
      stencil: full/bin/3d
      bin: standard
Per MPI rank memory allocation (min/avg/max) = 0.4647 | 3.681 | 4.743 Mbytes
Step c_2 Press Volume TotEng KinEng PotEng c_1[4] Density 
       0          240   -299.33439    216009.12   -18704.344    1395.7345   -20100.079            0   0.94393226 
     100    235.40938   -326.12852    216009.12   -18702.801    1369.0374   -20071.839   0.81337072   0.94393226 
     200    237.88931   -393.13602    216009.12   -18752.929    1383.4596   -20136.389    1.1661466   0.94393226 
     300    235.64879   -425.44172    216009.12   -18734.137    1370.4298   -20104.567    1.4295146   0.94393226 
     400    227.48405   -277.15159    216009.12   -18753.312    1322.9472    -20076.26    1.7095042   0.94393226 
     500    233.20904   -380.09358    216009.12   -18723.083    1356.2413   -20079.324    1.9137317   0.94393226 
     600    247.51601   -198.19033    216009.12   -18639.252    1439.4443   -20078.696    2.2416488   0.94393226 
     700    243.51507   -302.22576    216009.12   -18642.169    1416.1766   -20058.345    2.6109901   0.94393226 
     800    244.82133   -282.58801    216009.12   -18623.607    1423.7733    -20047.38    2.8915347   0.94393226 
     900    246.39899   -301.57413    216009.12    -18661.49    1432.9482   -20094.439    3.0730092   0.94393226 
    1000    238.52871   -319.78404    216009.12   -18711.932    1387.1781   -20099.111    3.2768839   0.94393226 
    1100    248.44953   -278.46193    216009.12   -18700.522    1444.8733   -20145.395    3.6265884   0.94393226 
    1200    241.60197   -331.20361    216009.12   -18690.818    1405.0509   -20095.869    4.0589731   0.94393226 
    1300    249.62184   -401.31277    216009.12   -18660.284    1451.6909   -20111.975    4.4084064   0.94393226 
    1400    240.12006   -287.82861    216009.12   -18692.699    1396.4327   -20089.132    4.7595048   0.94393226 
    1500    243.24011   -240.98616    216009.12   -18714.883    1414.5775    -20129.46    5.2252876   0.94393226 
    1600    246.86858    -297.2857    216009.12   -18694.604    1435.6791   -20130.283    5.4865467   0.94393226 
    1700    240.51394   -499.77346    216009.12   -18687.951    1398.7233   -20086.674    5.6959259   0.94393226 
    1800    246.05141    -469.7385    216009.12   -18653.082    1430.9268   -20084.009    6.1238246   0.94393226 
    1900    246.17337   -315.18872    216009.12   -18610.814    1431.6361    -20042.45    6.5372981   0.94393226 
    2000    247.20291   -154.00602    216009.12    -18584.19    1437.6234   -20021.813    6.8839246   0.94393226 
    2100    238.55715   -235.93097    216009.12   -18676.519    1387.3435   -20063.862    7.3256255   0.94393226 
    2200    242.59442   -229.46072    216009.12   -18656.534    1410.8225   -20067.357    7.7298833   0.94393226 
    2300    248.92304    -378.7625    216009.12   -18634.281     1447.627   -20081.908    8.1963583   0.94393226 
    2400    241.20297   -344.94788    216009.12   -18637.088    1402.7305   -20039.818    8.4062542   0.94393226 
    2500    244.82256   -370.74967    216009.12   -18653.447    1423.7804   -20077.227    8.7550896   0.94393226 
    2600    234.54872   -283.05934    216009.12    -18642.41    1364.0322   -20006.442     9.156627   0.94393226 
    2700    241.45934   -429.90697    216009.12    -18635.09    1404.2214   -20039.311    9.5708727   0.94393226 
    2800    234.04408    -436.2008    216009.12   -18570.148    1361.0975   -19931.245    9.8732392   0.94393226 
    2900    245.97155   -411.87482    216009.12   -18567.824    1430.4624   -19998.286    10.079425   0.94393226 
    3000    246.89371   -276.07355    216009.12   -18564.053    1435.8253   -19999.878    10.510513   0.94393226 
    3100    244.30528   -420.31588    216009.12   -18568.221    1420.7721   -19988.993    10.796247   0.94393226 
    3200    240.69105   -226.45448    216009.12   -18628.261    1399.7534   -20028.014    11.084993   0.94393226 
    3300    235.88992   -432.75344    216009.12   -18703.192    1371.8321   -20075.024    11.379641   0.94393226 
    3400    238.24553   -337.54216    216009.12   -18646.175    1385.5313   -20031.706    11.782128   0.94393226 
    3500    245.37444   -427.32804    216009.12   -18650.147    1426.9899   -20077.137    11.891109   0.94393226 
    3600    240.14728   -296.59539    216009.12   -18661.647     1396.591   -20058.238    12.073637   0.94393226 
    3700    240.11518   -388.11944    216009.12   -18647.336    1396.4043   -20043.741    12.400289   0.94393226 
    3800    241.70199   -325.45455    216009.12   -18628.915    1405.6325   -20034.547    12.676643   0.94393226 
    3900    242.12177   -283.93718    216009.12   -18633.017    1408.0738    -20041.09    13.142716   0.94393226 
    4000    235.86821   -344.46557    216009.12   -18677.314    1371.7058    -20049.02    13.512746   0.94393226 
    4100    238.20341   -306.32827    216009.12   -18670.357    1385.2863   -20055.644    14.242593   0.94393226 
    4200    239.83391    -346.6707    216009.12     -18634.2    1394.7686   -20028.968    14.496048   0.94393226 
    4300    239.88032   -391.20785    216009.12   -18677.474    1395.0385   -20072.513    14.835548   0.94393226 
    4400    241.15172   -383.32142    216009.12   -18646.874    1402.4324   -20049.307    15.155492   0.94393226 
    4500     237.8536   -334.68348    216009.12   -18673.092     1383.252   -20056.344    15.429577   0.94393226 
    4600    237.05812   -315.63292    216009.12   -18718.931    1378.6258   -20097.557    15.753443   0.94393226 
    4700    238.89572   -329.62845    216009.12   -18641.161    1389.3125   -20030.474    16.077796   0.94393226 
    4800    244.57884   -289.27393    216009.12   -18623.835     1422.363   -20046.198    16.407863   0.94393226 
    4900    245.65734   -232.06808    216009.12   -18582.964    1428.6351   -20011.599    16.678436   0.94393226 
    5000    243.08248   -234.85126    216009.12   -18636.901    1413.6609   -20050.561    17.411306   0.94393226 
    5100    239.35225   -310.96075    216009.12   -18626.551    1391.9675   -20018.518    17.779919   0.94393226 
    5200    238.02766   -307.68723    216009.12   -18658.257    1384.2642   -20042.521    18.126461   0.94393226 
    5300    235.10817   -369.76462    216009.12   -18719.212    1367.2858   -20086.498    18.462909   0.94393226 
    5400    231.03779   -349.04992    216009.12   -18704.511    1343.6142   -20048.125    18.677903   0.94393226 
    5500     234.4472   -322.42746    216009.12   -18691.508    1363.4418    -20054.95    19.133748   0.94393226 
    5600    235.39302   -220.01002    216009.12   -18735.738    1368.9423   -20104.681    19.279425   0.94393226 
    5700     242.2752   -423.20778    216009.12   -18699.472    1408.9661   -20108.438    19.556642   0.94393226 
    5800    236.82002   -425.81234    216009.12   -18695.195    1377.2411   -20072.436    20.054019   0.94393226 
    5900     243.0084   -316.45463    216009.12   -18733.671      1413.23   -20146.901    20.537187   0.94393226 
    6000    239.55654   -307.24842    216009.12   -18740.873    1393.1555   -20134.029     20.72826   0.94393226 
    6100    237.76226   -362.81326    216009.12   -18761.417    1382.7208   -20144.138    21.348961   0.94393226 
    6200    236.13945   -186.71676    216009.12   -18750.372    1373.2833   -20123.655    21.525968   0.94393226 
    6300    241.03907   -230.38689    216009.12   -18693.267    1401.7773   -20095.044    21.996699   0.94393226 
    6400    238.48294   -421.58138    216009.12   -18713.899     1386.912   -20100.811    22.037722   0.94393226 
    6500    233.68395    -443.3034    216009.12   -18712.776    1359.0032   -20071.779    22.102388   0.94393226 
    6600    241.11077   -312.79269    216009.12   -18729.467    1402.1942   -20131.661       22.197   0.94393226 
    6700    232.16307   -243.28575    216009.12   -18748.042    1350.1584     -20098.2    22.245233   0.94393226 
    6800    241.85347   -304.22065    216009.12   -18741.575    1406.5134   -20148.089    22.397233   0.94393226 
    6900     239.5339   -389.80985    216009.12   -18702.739    1393.0239   -20095.763    22.734947   0.94393226 
    7000    239.43065   -423.07897    216009.12   -18689.564    1392.4234   -20081.987    23.064112   0.94393226 
    7100     240.4329   -339.59705    216009.12   -18693.333    1398.2521   -20091.585    23.326807   0.94393226 
    7200    233.18463   -288.25341    216009.12   -18730.933    1356.0993   -20087.033    23.523905   0.94393226 
    7300    233.52696    -513.1014    216009.12    -18753.91    1358.0902       -20112    24.148305   0.94393226 
    7400    235.61461   -278.23145    216009.12   -18716.709     1370.231    -20086.94    24.291217   0.94393226 
    7500    243.48062   -375.18838    216009.12   -18685.631    1415.9762   -20101.607    24.566357   0.94393226 
    7600    236.08638   -217.31884    216009.12   -18639.486    1372.9746   -20012.461    24.962656   0.94393226 
    7700    240.41428   -348.32152    216009.12   -18624.914    1398.1438   -20023.058    25.283252   0.94393226 
    7800    229.22063   -346.03221    216009.12   -18678.137    1333.0464   -20011.184    25.358883   0.94393226 
    7900    243.51765   -224.38231    216009.12   -18651.037    1416.1916   -20067.229    25.727589   0.94393226 
    8000    244.01639   -343.52467    216009.12   -18604.132    1419.0921   -20023.224    26.139255   0.94393226 
    8100    248.64362   -341.55065    216009.12   -18604.776     1446.002   -20050.778    26.812914   0.94393226 
    8200    241.25409   -429.12229    216009.12   -18619.757    1403.0277   -20022.784    27.399778   0.94393226 
    8300    242.31205     -263.953    216009.12   -18577.884    1409.1804   -19987.065    27.436278   0.94393226 
    8400    242.11786   -350.59403    216009.12   -18564.582    1408.0511   -19972.633    28.102808   0.94393226 
    8500    241.45568   -425.00582    216009.12    -18596.71    1404.2001    -20000.91    28.311301   0.94393226 
    8600    235.95408   -414.13336    216009.12   -18600.866    1372.2052   -19973.072    28.764858   0.94393226 
    8700    241.05675   -453.38926    216009.12    -18603.53    1401.8801    -20005.41    29.175269   0.94393226 
    8800    237.32762   -218.70201    216009.12   -18595.224    1380.1931   -19975.417     29.43154   0.94393226 
    8900    234.27014   -218.67896    216009.12    -18631.87    1362.4121   -19994.282    29.533475   0.94393226 
    9000    246.03252   -203.53176    216009.12   -18610.201     1430.817   -20041.018    29.842852   0.94393226 
    9100    236.91893   -324.51988    216009.12   -18625.382    1377.8163   -20003.198    29.994693   0.94393226 
    9200    241.54919   -327.71166    216009.12    -18574.25    1404.7439   -19978.994    30.534443   0.94393226 
    9300    239.12183   -223.85813    216009.12   -18634.129    1390.6275   -20024.757    31.216033   0.94393226 
    9400    237.58894    -238.9537    216009.12   -18623.159    1381.7128   -20004.872    31.787722   0.94393226 
    9500     230.4127   -376.08837    216009.12   -18652.215     1339.979   -19992.194    32.476146   0.94393226 
    9600    245.30188    -492.4379    216009.12   -18665.392    1426.5679    -20091.96    32.656215   0.94393226 
    9700    237.27417   -265.62033    216009.12   -18637.485    1379.8823   -20017.368    32.620388   0.94393226 
    9800    244.97643   -250.56766    216009.12   -18589.033    1424.6753   -20013.709    33.129962   0.94393226 
    9900     243.1323   -101.95559    216009.12   -18605.271    1413.9506   -20019.222    33.436586   0.94393226 
   10000    241.20667   -255.94341    216009.12    -18610.89     1402.752   -20013.642    33.747126   0.94393226 
Loop time of 14.7286 on 160 procs for 10000 steps with 9248 atoms

Performance: 293.307 ns/day, 0.082 hours/ns, 678.952 timesteps/s
97.6% CPU use with 160 MPI tasks x no OpenMP threads

MPI task timing breakdown:
Section |  min time  |  avg time  |  max time  |%varavg| %total
---------------------------------------------------------------
Pair    | 0.00044727 | 2.9846     | 12.232     | 238.6 | 20.26
Neigh   | 0.00033903 | 0.09589    | 0.38431    |  39.5 |  0.65
Comm    | 0.014398   | 3.6484     | 12.123     | 222.3 | 24.77
Output  | 0.17561    | 0.17579    | 0.18275    |   0.1 |  1.19
Modify  | 0.39696    | 7.6627     | 14.387     | 223.4 | 52.03
Other   |            | 0.1611     |            |       |  1.09

Nlocal:    57.8 ave 196 max 0 min
Histogram: 72 23 25 0 0 0 0 0 13 27
Nghost:    534.763 ave 922 max 0 min
Histogram: 24 0 0 8 8 40 30 18 16 16
Neighs:    0 ave 0 max 0 min
Histogram: 160 0 0 0 0 0 0 0 0 0
FullNghs:  5911.89 ave 23598 max 0 min
Histogram: 100 20 0 0 0 0 0 1 21 18

Total # of neighbors = 945902
Ave neighs/atom = 102.282
Neighbor list builds = 573
Dangerous builds = 0
write_data 	    ${DIR}/data.${NAME}_eq
write_data 	    run_29/data.${NAME}_eq
write_data 	    run_29/data.ibeam_cooling_29_eq

undump              1
unfix               4



################################################
#######         Run Simulation         #########
################################################

reset_timestep      0
timestep	    10.0
log                 ${DIR}/log.run_${NAME}
log                 run_29/log.run_${NAME}
log                 run_29/log.run_ibeam_cooling_29
