
# Set production fixes - Nose/Hoover
#
fix                 4 water temp/csvr ${START_TEMP} ${END_TEMP} 500.0 928347
fix                 4 water temp/csvr 240 ${END_TEMP} 500.0 928347
fix                 4 water temp/csvr 240 227 500.0 928347


## divide "droplet" into core and surface
#region		core_reg cylinder z 135 135 44.6 20 INF units box
#region		surface_reg cylinder z 135 135 44.6 20 INF units box side out
#group		core dynamic all region core_reg
#group		surface dynamic all region surface_reg

## compute pressure core
#compute        peratom_core core stress/atom NULL
#compute        p_core core reduce sum c_peratom_core[1] c_peratom_core[2] c_peratom_core[3]
#variable       press_core equal -(c_p_core[1]+c_p_core[2]+c_p_core[3])/(3*1249982.5)


## compute pressure surface
#compute        peratom_surf surface stress/atom NULL
#compute        p_surf surface reduce sum c_peratom_surf[1] c_peratom_surf[2] #c_peratom_surf[3]
#variable       press_surf equal -(c_p_surf[1]+c_p_surf[2]+c_p_surf[3])/(3*42395)

## compute total pressure of drop
compute        peratom water stress/atom NULL
compute        p water reduce sum c_peratom[1] c_peratom[2] c_peratom[3]
variable       press equal -(c_p[1]+c_p[2]+c_p[3])/(3*50320)


# compute order parameter
compute        3 all orientorder/atom nnn NULL cutoff 3.5

# compute center of mass of bridge
compute 	4 water com

# Run simulation
thermo_style        custom step c_2 press vol etotal ke pe v_press c_1[4] c_4[*]
thermo              200
dump		     1 water custom 400 ${DIR}/prod.${NAME}.dump id type x y z vx vy vz c_3[*] c_peratom[*]
dump		     1 water custom 400 run_14/prod.${NAME}.dump id type x y z vx vy vz c_3[*] c_peratom[*]
dump		     1 water custom 400 run_14/prod.ibeam_cooling_14.dump id type x y z vx vy vz c_3[*] c_peratom[*]
run                 ${STEPS}
run                 5200000
Neighbor list info ...
  update every 1 steps, delay 0 steps, check yes
  max neighbors/atom: 2000, page size: 100000
  master list distance cutoff = 6.67472
  ghost atom cutoff = 6.67472
  binsize = 3.33736, bins = 48 13 11
  2 neighbor lists, perpetual/occasional/extra = 1 1 0
  (1) pair sw, perpetual
      attributes: full, newton on
      pair build: full/bin/atomonly
      stencil: full/bin/3d
      bin: standard
  (2) compute orientorder/atom, occasional, copy from (1)
      attributes: full, newton on
      pair build: copy
      stencil: none
      bin: none
Per MPI rank memory allocation (min/avg/max) = 0.8535 | 5.98 | 7.262 Mbytes
Step c_2 Press Volume TotEng KinEng PotEng v_press c_1[4] c_4[1] c_4[2] c_4[3] 
       0     239.2455    -284.0478    216009.12   -18692.558    1391.3467   -20083.905   -608.53147    29.803878    78.749535    22.596734    25.523281 
     200    240.48714   -249.37497    216009.12   -18758.415    1398.5675   -20156.982   -466.57511     30.61774    78.747258    22.599228    25.534984 
     400    240.79413    -352.3791    216009.12    -18706.57    1400.3528   -20106.923   -886.10904     32.06544    78.748343    22.600223    25.517402 
     600    245.90592   -311.14805    216009.12   -18589.264    1430.0807   -20019.344    -726.6627    33.397089    78.750701    22.600199    25.501587 
     800    247.54946   -272.07409    216009.12   -18586.801    1439.6388   -20026.439   -497.53926    33.886895    78.750965    22.598832    25.499134 
    1000    233.70361   -308.25411    216009.12   -18703.753    1359.1175   -20062.871   -724.84676    34.992769    78.751371    22.600409    25.522876 
    1200    241.54804   -278.89296    216009.12   -18641.195    1404.7372   -20045.932   -606.71662    35.693776    78.753234    22.602366    25.533384 
    1400    238.47983   -381.88915    216009.12    -18641.41    1386.8939   -20028.304    -1038.443    37.554397    78.753305    22.604259    25.525805 
    1600     235.3348   -370.61281    216009.12   -18636.739    1368.6038   -20005.343   -990.51557    38.591148    78.755894     22.60465     25.51313 
    1800    244.31925   -347.28227    216009.12   -18574.657    1420.8534   -19995.511   -821.87188    40.154205    78.756919    22.604657    25.521151 
    2000    243.93095   -331.46311    216009.12   -18496.348    1418.5952   -19914.943   -863.24611    41.677909    78.755261    22.606443    25.527636 
    2200    244.81478   -453.37552    216009.12   -18552.421    1423.7351   -19976.157   -1379.9073    43.577086    78.757209    22.605878    25.504239 
    2400    244.62189   -378.62105    216009.12   -18558.541    1422.6134   -19981.154     -1031.62    45.287305    78.756327    22.606182    25.499125 
    2600    239.76953    -161.5276    216009.12   -18566.625    1394.3942   -19961.019   -57.587964    46.470303    78.758272    22.606593    25.508347 
    2800    241.96349    -450.7947    216009.12    -18512.74    1407.1533   -19919.893   -1324.7468    48.725068    78.758146    22.607004    25.514136 
    3000    242.56965    -519.8232    216009.12   -18515.789    1410.6785   -19926.468    -1664.338    50.813832    78.758673    22.605076    25.536547 
    3200      242.034   -322.83306    216009.12   -18603.009    1407.5633   -20010.573   -825.08703    52.113226    78.756314    22.605641    25.518552 
    3400    241.98587   -354.57804    216009.12   -18578.335    1407.2834   -19985.618   -927.95483     53.33286    78.753355    22.605934    25.519523 
    3600    238.24995   -286.70327    216009.12   -18556.124     1385.557   -19941.681   -654.18596    54.724371    78.753878    22.606016    25.501359 
    3800    240.21084   -290.89979    216009.12   -18528.069    1396.9606   -19925.029   -668.86877     55.51991    78.754768    22.606114    25.513885 
    4000    238.55963   -369.38415    216009.12   -18584.407    1387.3579   -19971.765   -989.98299    56.327837    78.755179    22.608321    25.538097 
    4200    243.90075   -147.60793    216009.12   -18533.414    1418.4196   -19951.834   -77.734419    58.020559    78.755875    22.610238    25.560353 
    4400    247.37513   -335.31419    216009.12   -18573.886     1438.625   -20012.511   -900.26465    59.026315    78.756923    22.608673    25.548198 
    4600    233.41587   -249.62951    216009.12   -18652.518    1357.4441   -20009.962   -472.00664    60.478799     78.75602    22.610856    25.542517 
    4800    240.25732   -339.42507    216009.12    -18531.26     1397.231   -19928.491    -859.4263    60.778428    78.755153    22.610064    25.538655 
    5000    237.78759   -396.22093    216009.12   -18575.416    1382.8681   -19958.284   -1136.1209    62.333132    78.753047    22.607907    25.537624 
    5200    239.25062   -244.19312    216009.12   -18593.983    1391.3764   -19985.359   -464.24612    63.952966    78.753445    22.606537    25.525819 
    5400    235.40812   -474.91394    216009.12   -18624.421    1369.0302   -19993.451   -1406.7354    65.515715    78.758437    22.605042    25.516151 
    5600    234.30242   -503.87156    216009.12   -18633.787    1362.5999   -19996.387    -1590.192    67.281324    78.762613    22.605946    25.525174 
    5800    235.97415   -311.65167    216009.12   -18540.242    1372.3219   -19912.563   -769.11569    68.563166    78.765644     22.60764    25.544032 
    6000     242.0667   -486.77296    216009.12   -18575.822    1407.7535   -19983.575   -1489.6382    69.662043    78.767065    22.607702    25.546747 
    6200    239.28281   -368.04725    216009.12   -18567.602    1391.5636   -19959.165   -970.33616     71.34556    78.765372    22.608035    25.534829 
    6400    234.93216   -228.92371    216009.12   -18543.205    1366.2622   -19909.467   -430.31709    73.235174    78.762835    22.609169    25.531111 
    6600    245.04615   -407.00654    216009.12   -18561.436    1425.0807   -19986.517    -1113.589    75.135724     78.76186     22.61261    25.536333 
    6800    236.75021   -69.958781    216009.12    -18577.78    1376.8351   -19954.615    277.88178     76.07536    78.761566    22.610862    25.531822 
    7000    239.74487   -447.85771    216009.12   -18556.813    1394.2508   -19951.064   -1311.5529    78.856233    78.763457    22.611798     25.53501 
    7200    232.86179   -302.61235    216009.12   -18657.482    1354.2218   -20011.704   -687.04002    80.518226    78.765787    22.609857    25.521155 
    7400    240.37999   -387.67765    216009.12    -18606.07    1397.9444   -20004.014   -1019.5219    82.868435     78.76597    22.610382    25.511712 
    7600    243.50728   -398.09726    216009.12   -18539.158    1416.1313   -19955.289   -1111.7583     83.36366    78.765735    22.609218    25.538444 
    7800    235.33517   -391.20471    216009.12   -18623.146    1368.6059   -19991.752   -1086.2363    84.914408     78.76541    22.608917     25.53396 
    8000    245.52229   -331.52839    216009.12   -18510.812    1427.8497   -19938.661    -837.1558    86.955225    78.764112    22.607573    25.505505 
    8200    241.73708   -480.77283    216009.12   -18546.647    1405.8366   -19952.483   -1484.8392    88.055976     78.76541    22.607273    25.524168 
    8400    243.57188   -325.20571    216009.12    -18496.48     1416.507   -19912.987   -820.19026    89.336223    78.764632    22.607679    25.529332 
    8600    237.67123   -396.42097    216009.12   -18561.454    1382.1914   -19943.645   -1152.8683    90.095897    78.764457    22.607517    25.530423 
    8800     242.1282   -108.41911    216009.12   -18595.814    1408.1112   -20003.925     86.87665    91.654948    78.764962    22.606688    25.500979 
    9000    239.03072   -437.57072    216009.12   -18522.582    1390.0976   -19912.679   -1271.8683    94.115349    78.762637     22.60683    25.490096 
    9200    242.36231   -299.94953    216009.12   -18520.681    1409.4727   -19930.154   -719.10925    95.662297    78.762086     22.60429    25.498546 
    9400    241.83452   -200.82191    216009.12   -18540.464    1406.4033   -19946.868   -279.96289     97.11513     78.76317    22.604056    25.501335 
    9600    236.88678   -253.85825    216009.12   -18603.474    1377.6294   -19981.103   -501.31037    98.248558     78.76483    22.604529    25.491546 
    9800    241.97802   -346.01987    216009.12   -18515.881    1407.2378   -19923.119   -913.93291    99.895874    78.766646    22.603274    25.477883 
   10000     235.6579   -141.01855    216009.12   -18577.521    1370.4828   -19948.003   -27.367139    100.47092    78.768011    22.603003    25.440901 
   10200    248.14676   -295.07078    216009.12   -18514.863    1443.1125   -19957.976   -677.08759    101.07988    78.769614    22.600304    25.459626 
   10400    248.70166   -188.38529    216009.12   -18510.088    1446.3395   -19956.427   -239.77676    101.63098    78.769489     22.60143    25.469256 
   10600    245.17267   -350.76819    216009.12   -18609.788    1425.8165   -20035.605   -939.92061    103.70853    78.772128    22.601115      25.5061 
   10800    237.78283   -298.81454    216009.12   -18607.348    1382.8404   -19990.188   -718.11578    104.99938    78.771918    22.601918    25.495602 
   11000    238.45144   -309.35187    216009.12   -18635.978    1386.7287   -20022.707   -751.93577    106.05785    78.771849    22.601955    25.499203 
   11200    237.72675   -361.72823    216009.12   -18615.295    1382.5143   -19997.809   -981.22758    107.51059    78.771345    22.601867    25.516634 
   11400    241.36371   -399.95158    216009.12   -18617.082    1403.6652   -20020.747   -1141.1481    108.65564    78.770218    22.601427    25.503821 
   11600    244.76592   -347.10761    216009.12   -18544.374     1423.451   -19967.825   -946.83169    110.50363    78.770378    22.601148    25.499071 
   11800     237.1077    -206.3923    216009.12   -18527.281    1378.9141   -19906.195   -322.95995    111.43328     78.77277    22.602729    25.518082 
   12000    246.17828   -310.90692    216009.12   -18551.011    1431.6647   -19982.675   -750.77891    113.30094     78.77114     22.60116    25.502862 
   12200    241.54712   -369.16641    216009.12   -18555.315    1404.7319   -19960.046   -993.47212    115.02331    78.771854    22.600611    25.513136 
   12400    250.86899   -334.64268    216009.12   -18577.444    1458.9438   -20036.387   -873.27358    116.26497    78.770483    22.600742    25.487496 
   12600    235.79003   -327.33846    216009.12   -18527.212    1371.2511   -19898.463   -847.38208    118.14455    78.768516      22.5972    25.483373 
   12800    241.72382   -353.97488    216009.12    -18541.06    1405.7595    -19946.82   -964.74419    120.45679    78.769728    22.597236     25.49079 
   13000    238.93503   -320.41032    216009.12   -18581.951    1389.5411   -19971.493   -780.80091    121.40428    78.768235    22.596688    25.509553 
   13200     240.7827    -393.3556    216009.12    -18633.15    1400.2863   -20033.436   -1109.1854    122.76007    78.765701    22.597448    25.540694 
   13400    236.30932   -307.59149    216009.12   -18721.039    1374.2711    -20095.31   -773.21056      124.163    78.763993     22.59927    25.521246 
   13600    238.28396   -217.83498    216009.12   -18663.489    1385.7548   -20049.244   -338.97512    124.22517    78.762879    22.601252    25.510802 
   13800    237.33852   -337.75937    216009.12   -18574.535    1380.2565   -19954.792    -861.4974    125.17496    78.764391    22.601178    25.532035 
   14000    243.23297   -264.24674    216009.12   -18529.649     1414.536   -19944.185   -523.98744    125.33678    78.768681    22.601094    25.535618 
   14200    236.99748    -411.8148    216009.12   -18581.904    1378.2731   -19960.177    -1208.007    126.99185    78.768919    22.601416    25.520607 
   14400    241.19449   -327.32563    216009.12   -18634.215    1402.6811   -20036.896   -827.24145    128.29316    78.769155     22.60078    25.544438 
   14600    239.11529   -351.64579    216009.12   -18618.552    1390.5894   -20009.141   -914.76815    128.84255    78.769433    22.601537    25.525399 
   14800    236.27154   -236.90658    216009.12   -18608.823    1374.0514   -19982.874   -468.20962    127.71756    78.769412    22.601823    25.528226 
   15000    239.88802    -390.6418    216009.12   -18604.411    1395.0833   -19999.494   -1083.2556    128.31383    78.767891    22.604208    25.534814 
   15200    239.89263   -305.84214    216009.12   -18554.246    1395.1101   -19949.356   -700.82606    129.85891    78.766387    22.602284     25.51623 
   15400    236.16576   -299.22634    216009.12   -18623.161    1373.4363   -19996.597   -697.31433    131.57331    78.766083    22.600695    25.502175 
   15600    254.92373   -272.15542    216009.12   -18480.255    1482.5243   -19962.779   -607.15243    134.33107     78.76362     22.60082     25.49207 
   15800    244.62218   -370.16177    216009.12   -18506.224    1422.6151   -19928.839   -1030.8928    136.20231    78.762225    22.600298    25.504398 
   16000    235.67393   -233.13953    216009.12   -18550.263    1370.5759   -19920.839   -374.39036     139.1422    78.760928    22.601054    25.546489 
   16200     243.2444   -269.53866    216009.12   -18547.581    1414.6025   -19962.183   -540.62179     140.9401    78.760627    22.599234    25.575484 
   16400    235.63604   -179.83862    216009.12   -18574.608    1370.3556   -19944.964   -152.74007    141.98221    78.759202    22.600718    25.564651 
   16600    245.39104   -252.70229    216009.12   -18485.611    1427.0864   -19912.698   -519.10959    144.73784    78.760481    22.601385     25.55979 
   16800    245.23339   -376.73619    216009.12   -18559.991    1426.1696    -19986.16   -1057.6806    145.43949    78.760853    22.602082    25.560236 
   17000    241.61922   -210.38476    216009.12    -18622.93    1405.1512   -20028.081   -299.19964    146.30947    78.759289    22.601808    25.576238 
   17200    232.32351   -246.19175    216009.12   -18611.496    1351.0914   -19962.587   -449.05539    147.20392    78.760717     22.60397    25.570419 
   17400    235.63711    -374.6797    216009.12   -18659.816    1370.3618   -20030.178   -1009.7856    148.63392    78.759665    22.606131    25.576407 
   17600    231.80109   -319.19251    216009.12   -18607.824    1348.0532   -19955.877   -729.86571    150.27448    78.758949    22.607364    25.570179 
   17800     233.4992   -215.80269    216009.12   -18596.606    1357.9287   -19954.535   -355.46313    150.16307    78.759619    22.607473    25.592612 
   18000    239.11877   -231.07091    216009.12   -18548.471    1390.6096   -19939.081   -412.19749    151.01512    78.761527     22.60866    25.613293 
   18200     237.0336   -374.70016    216009.12   -18562.227    1378.4832   -19940.711   -1025.2043    152.43432    78.760111    22.607003    25.596575 
   18400    243.67057   -269.62309    216009.12   -18550.192    1417.0809   -19967.273   -581.77412    154.74416    78.760679    22.610112    25.602141 
   18600    241.21888   -364.65156    216009.12    -18532.87     1402.823   -19935.693   -1052.7681    157.74235    78.761634    22.610521     25.60194 
   18800    241.23315   -350.28864    216009.12   -18582.111    1402.9059   -19985.017   -949.85618    158.98053    78.759735    22.610425    25.603018 
   19000    246.29015   -323.23241    216009.12   -18530.316    1432.3153   -19962.632   -777.17367    158.94502    78.760308    22.609801    25.602587 
   19200    245.89279   -146.66407    216009.12   -18572.118    1430.0044   -20002.122    28.528529    160.89425     78.75815    22.606697    25.607762 
   19400    239.11255   -435.19829    216009.12   -18541.656    1390.5735   -19932.229   -1245.6925    162.03999     78.75695    22.603573    25.600108 
   19600    244.66061   -407.92874    216009.12   -18572.214    1422.8385   -19995.053   -1173.8503     162.6467    78.755204    22.604911    25.621632 
   19800    237.43317   -269.60467    216009.12   -18568.067     1380.807   -19948.874   -570.60337    164.65008    78.754718    22.607108    25.630645 
   20000    249.05355   -276.88266    216009.12   -18559.272     1448.386   -20007.658   -591.05793     165.6329    78.753979    22.608094    25.629526 
   20200    232.90403   -226.78207    216009.12    -18621.75    1354.4674   -19976.217   -356.57291    165.83787    78.755042    22.607355    25.620377 
   20400     241.7009   -390.90473    216009.12   -18524.412    1405.6262   -19930.038   -1081.4557    166.03859    78.753148     22.60986    25.599808 
   20600    239.74199   -309.52362    216009.12   -18636.173     1394.234   -20030.407   -714.77011    167.71657    78.750499    22.609563    25.612028 
   20800    237.43771   -407.30343    216009.12   -18542.893    1380.8334   -19923.727    -1152.754    168.70714    78.748912    22.612211    25.624781 
   21000    238.69298   -378.44537    216009.12   -18587.823    1388.1335   -19975.956   -973.35807    170.20367    78.748904     22.61216    25.609344 
   21200    243.73923   -207.68909    216009.12   -18587.757    1417.4802   -20005.237    -299.6763    171.04017    78.749149    22.612193    25.619538 
   21400    236.71843   -345.61715    216009.12    -18567.13    1376.6503    -19943.78   -848.41498    172.83592    78.744815    22.613042     25.63758 
   21600    244.06492   -391.35359    216009.12   -18487.894    1419.3743   -19907.268    -1107.806    172.44563    78.742042    22.612661    25.649438 
   21800    234.05619   -214.42021    216009.12   -18574.168    1361.1679   -19935.336   -373.46772    172.80185    78.742889    22.612866    25.659645 
   22000    234.02278   -276.04301    216009.12   -18623.168    1360.9736   -19984.141   -557.65785    173.37726    78.741446    22.611666    25.639345 
   22200    238.22482   -456.35583    216009.12   -18654.043    1385.4108   -20039.454   -1336.7694    174.14509    78.743073    22.610988    25.628425 
   22400    250.27394   -287.73907    216009.12   -18533.705    1455.4832   -19989.189    -662.6192    174.75083    78.744867    22.610246    25.626591 
   22600    241.96299   -354.87837    216009.12   -18544.156    1407.1504   -19951.306   -943.22649    175.58069    78.746011    22.609879    25.639265 
   22800     245.3649   -239.75071    216009.12    -18526.27    1426.9344   -19953.205   -442.73527    176.47397    78.747511    22.612665    25.671018 
   23000    234.49566   -343.21453    216009.12   -18606.967    1363.7237    -19970.69   -847.98325    178.54604    78.746701    22.612434    25.700093 
   23200    239.47501   -285.90361    216009.12   -18600.032    1392.6814   -19992.713   -640.21432    180.36669    78.745119    22.610873    25.714431 
   23400    238.15324   -379.05868    216009.12   -18634.589    1384.9946   -20019.583   -1034.8634    182.76929    78.744097    22.611047    25.709931 
   23600    240.62856    -326.0699    216009.12   -18567.435    1399.3899   -19966.825   -844.15514    184.89747    78.742388    22.610248    25.721697 
   23800    243.93599   -456.56637    216009.12   -18578.338    1418.6245   -19996.962   -1342.3666    187.31675    78.744064     22.60988    25.734842 
   24000    245.27514   -359.44231    216009.12    -18601.41    1426.4124   -20027.823   -975.09371    187.56309    78.745011    22.610648    25.714349 
   24200    232.98375    -435.2004    216009.12   -18590.433    1354.9311   -19945.364   -1288.8762    190.00417    78.746147    22.612008    25.699264 
   24400    239.25476   -189.31831    216009.12   -18633.291    1391.4005   -20024.691   -210.23561    189.96303    78.747862    22.613474    25.702707 
   24600    234.08677   -407.13576    216009.12   -18648.385    1361.3458   -20009.731   -1116.5202    192.91344    78.746692    22.617034    25.701684 
   24800    245.03393   -229.78104    216009.12   -18640.227    1425.0096   -20065.236   -418.92645     193.6496      78.7467     22.62103    25.675024 
   25000    236.56102   -250.07574    216009.12   -18645.033    1375.7349   -20020.768   -448.18817    194.60395    78.744829      22.6217     25.63051 
   25200    231.18337   -375.70724    216009.12   -18751.215    1344.4609   -20095.676   -1001.8361    194.80497    78.744626     22.62285    25.609763 
   25400     241.5099     -201.338    216009.12   -18682.543    1404.5154   -20087.059   -245.16792    193.85297    78.745395    22.624663    25.607116 
   25600    247.64069   -331.74123    216009.12   -18526.005    1440.1694   -19966.175   -846.34793    195.87991    78.744866    22.626842    25.612267 
   25800    248.14752   -221.46484    216009.12   -18553.887    1443.1169   -19997.004   -368.69096    197.27734    78.747158    22.628248    25.627056 
   26000     241.8176   -393.92474    216009.12   -18573.234    1406.3049   -19979.538   -1184.5428     197.8431    78.747505    22.625552    25.632668 
   26200    241.78824   -338.55208    216009.12   -18593.347    1406.1341   -19999.482     -882.248    199.49407    78.745862    22.622699     25.64328 
   26400    235.83728   -363.29015    216009.12   -18644.277    1371.5259   -20015.803   -1012.7682    199.58834    78.744515    22.623291    25.633228 
   26600    244.23527   -6.5618889    216009.12   -18546.098     1420.365   -19966.463    587.85627      200.357    78.745281    22.621564    25.613457 
   26800    241.63306   -291.76194    216009.12    -18597.56    1405.2316   -20002.792   -658.59111    202.20686     78.74564    22.620531     25.61379 
   27000    245.52791   -226.69915    216009.12   -18537.936    1427.8824   -19965.818   -411.74677    203.71907    78.745894    22.620845    25.576116 
   27200    242.64569   -267.19912    216009.12   -18595.016    1411.1206   -20006.137   -567.78256    204.67343    78.746555    22.616641    25.571881 
   27400    240.01567   -291.32936    216009.12   -18535.806    1395.8256   -19931.632   -705.34365    205.99012    78.749313    22.614497    25.574883 
   27600    234.19323   -205.60258    216009.12   -18629.244    1361.9649   -19991.209   -320.55371    208.22061    78.749888    22.613465    25.610818 
   27800     242.7957   -256.08501    216009.12   -18532.781     1411.993   -19944.774   -497.95551    209.40363    78.747038    22.611464    25.589038 
   28000    235.51195   -326.57288    216009.12    -18612.89    1369.6339   -19982.524   -829.91703    211.81415    78.747207    22.609128    25.592709 
   28200     241.5848   -490.35561    216009.12   -18604.998     1404.951   -20009.949    -1513.702    213.97252    78.744624    22.608378    25.591949 
   28400    236.83016    -288.3041    216009.12   -18617.006    1377.3001   -19994.306   -643.57483    214.00662    78.743447    22.607486    25.616825 
   28600    245.36059   -334.11682    216009.12    -18651.84    1426.9094   -20078.749   -828.11574    215.75425    78.741363    22.608194     25.62903 
   28800    237.76594   -237.78153    216009.12   -18647.662    1382.7422   -20030.404   -445.00712    217.13492    78.740292    22.610257    25.611531 
   29000    241.06259   -243.57979    216009.12   -18574.051    1401.9141   -19975.966   -439.67374    217.47722    78.739026    22.609387    25.609524 
   29200    238.90503   -268.77198    216009.12   -18551.733    1389.3667     -19941.1   -561.22636    217.00309    78.739164    22.606637    25.621941 
   29400    239.33065   -312.50587    216009.12   -18553.036    1391.8419   -19944.878   -737.47242    219.27833    78.740621    22.603806    25.636598 
   29600     242.8549   -433.93147    216009.12   -18551.557    1412.3373   -19963.894    -1273.012    222.50256    78.741542    22.605587    25.647895 
   29800    237.50432   -286.23067    216009.12   -18650.748    1381.2207   -20031.969   -663.11092    225.06727    78.742655    22.604429    25.624897 
   30000    233.42135   -341.47131    216009.12   -18680.346     1357.476   -20037.822   -910.27015    226.93444    78.740504    22.602728    25.639927 
   30200    238.69528   -279.44986    216009.12   -18652.144    1388.1468   -20040.291    -589.6898    226.49315    78.738326    22.598501    25.623328 
   30400    240.34305   -165.75273    216009.12   -18626.022    1397.7295   -20023.751   -163.12807    227.54007    78.739416    22.598263    25.652583 
   30600    240.79076   -469.27666    216009.12   -18649.683    1400.3332   -20050.016   -1414.5764    229.03896    78.740147    22.596627     25.65353 
   30800    237.03859   -192.08241    216009.12   -18589.632    1378.5122   -19968.144    -247.7675     230.2274    78.739331    22.596502    25.634479 
   31000    242.48118   -284.12359    216009.12   -18581.722     1410.164   -19991.886   -644.94902    230.55513    78.738327    22.598069    25.607742 
   31200    242.88639   -284.09607    216009.12   -18552.137    1412.5205   -19964.657   -643.70371    230.56639    78.740454     22.60115     25.58516 
   31400    237.42815   -322.85006    216009.12   -18514.611    1380.7778   -19895.389   -794.46167    231.77473    78.743606    22.599902    25.586433 
   31600    229.78981   -316.89535    216009.12   -18572.011    1336.3565   -19908.367   -807.35122    232.84576    78.744547    22.600265    25.584074 
   31800    242.95081   -312.98009    216009.12   -18518.357    1412.8951   -19931.252   -762.64852    234.89461      78.7424    22.600625     25.59865 
   32000    232.07187   -350.86558    216009.12   -18635.834     1349.628   -19985.462   -968.75678    235.53085    78.741135    22.601959     25.58883 
   32200    227.86002   -362.98756    216009.12   -18601.137    1325.1337   -19926.271   -1005.1649     236.8356    78.739387    22.603274     25.59254 
   32400    240.17965   -321.72743    216009.12   -18588.384    1396.7792   -19985.163   -825.99458     237.9087    78.740806    22.601717    25.593735 
   32600    246.86498   -260.91254    216009.12   -18555.862    1435.6582   -19991.521   -579.76867    237.60062    78.740735    22.599091    25.603332 
   32800     243.6488   -429.23041    216009.12   -18550.235    1416.9543    -19967.19   -1268.0728    238.88919    78.740751    22.595615    25.613708 
   33000    243.76183   -256.21145    216009.12   -18555.909    1417.6116   -19973.521   -508.83328    241.10695    78.742367    22.595667    25.636837 
   33200      237.517   -156.81041    216009.12   -18578.341    1381.2944   -19959.635   -70.804639     240.1576    78.743537     22.59429    25.642392 
   33400    230.33326    -402.7186    216009.12   -18609.695     1339.517   -19949.212   -1127.1269    241.56968    78.744058    22.593374    25.660197 
   33600    241.28577   -247.87716    216009.12   -18607.938    1403.2119    -20011.15   -444.46886    242.52562    78.744083    22.593834    25.654313 
   33800    251.16109    -279.6213    216009.12   -18491.505    1460.6425   -19952.147   -596.93647    245.72655    78.742241    22.594372    25.647621 
   34000    237.37912   -165.44476    216009.12   -18602.253    1380.4926   -19982.746   -124.45662    247.07808    78.742825    22.593604    25.659264 
   34200    240.92248   -540.48724    216009.12   -18600.843    1401.0992   -20001.943   -1705.6566    249.65682    78.742785    22.593116     25.63885 
   34400    235.68104   -228.92101    216009.12   -18652.905    1370.6173   -20023.522   -374.84602    251.44166    78.741663    22.590821     25.63836 
   34600    240.83014   -238.33006    216009.12   -18522.266    1400.5622   -19922.828   -442.25758    252.59842    78.740599    22.591669    25.665236 
   34800    240.74454   -256.94807    216009.12   -18598.147    1400.0644   -19998.211   -523.68394    253.57817    78.739908     22.59298    25.672347 
   35000    242.12896    -309.1057    216009.12   -18622.267    1408.1156   -20030.382   -664.48674    254.47642    78.739756    22.593435     25.68538 
   35200    241.91013   -34.047805    216009.12   -18552.696     1406.843   -19959.539    404.02389    253.37167    78.739533    22.594714    25.684532 
   35400    242.14813   -235.27274    216009.12    -18548.65    1408.2271   -19956.878   -444.69863    254.54196    78.740018    22.594665    25.666769 
   35600    242.08665   -337.50284    216009.12   -18556.742    1407.8695   -19964.612   -846.57508     257.3672    78.740534     22.59639    25.638402 
   35800    243.13152   -398.51575    216009.12   -18488.479     1413.946   -19902.425   -1154.0153    258.46224    78.741179    22.594989     25.64474 
   36000    235.18005   -309.20873    216009.12   -18591.169    1367.7038   -19958.872   -761.16907    260.18152    78.741269    22.594503    25.657776 
   36200    236.30658    -443.9999    216009.12   -18552.727    1374.2552   -19926.982   -1254.9885    261.39037    78.740958    22.593064    25.663305 
   36400    250.80485   -253.19843    216009.12   -18554.323    1458.5707   -20012.894   -495.81611    262.56003    78.741321    22.591869    25.650434 
   36600    247.94368   -158.13016    216009.12   -18538.515    1441.9315   -19980.446   -78.677428    264.80041    78.743669    22.591879    25.638951 
   36800    237.81846   -287.65414    216009.12   -18601.652    1383.0476     -19984.7    -587.4787    265.58144    78.743205    22.591221    25.626032 
   37000    239.32016   -416.55777    216009.12   -18598.764    1391.7808   -19990.545   -1241.2095     267.1847    78.744664    22.589215    25.617961 
   37200    235.34958   -271.10498    216009.12   -18633.492    1368.6897   -20002.181   -526.12715    266.95956    78.745515    22.588311    25.614226 
   37400    240.22861   -268.85227    216009.12   -18610.495     1397.064   -20007.559    -545.7312    268.52225    78.749126    22.588994    25.607727 
   37600     239.7788   -409.26018    216009.12   -18595.251    1394.4481   -19989.699   -1145.7295    270.05853    78.750252    22.586064    25.613086 
   37800    230.59754   -357.48402    216009.12   -18634.594    1341.0539   -19975.648   -962.62825    272.99922    78.752014    22.585908    25.601109 
   38000    238.02723   -224.43157    216009.12   -18555.516    1384.2617   -19939.778   -426.01917    275.28544    78.751735    22.585033    25.603644 
   38200    240.70211   -321.73295    216009.12   -18514.251    1399.8177   -19914.069   -755.82854    275.96768    78.751086    22.585119    25.615696 
   38400    245.49201   -262.23793    216009.12   -18476.076    1427.6736    -19903.75    -518.4721    275.41493    78.749755    22.584085    25.626019 
   38600    240.15188   -393.24773    216009.12   -18540.466    1396.6178   -19937.083   -1087.1201    276.51438    78.749788    22.584703    25.625342 
   38800    239.54008   -325.90639    216009.12   -18554.682    1393.0598   -19947.742   -826.14184    276.89583    78.748128    22.586154    25.622353 
   39000    245.67341   -349.90939    216009.12   -18516.277    1428.7285   -19945.005   -876.16846    278.49051    78.747043    22.588093    25.617232 
   39200    234.06069   -326.73429    216009.12   -18643.165    1361.1941   -20004.359    -883.1576    278.98825    78.744419    22.589534    25.618666 
   39400    240.06815   -365.59635    216009.12   -18600.396    1396.1309   -19996.527   -965.30908    282.02916     78.74278    22.589482    25.598495 
   39600    247.66177   -242.88038    216009.12   -18571.244     1440.292   -20011.536   -446.89859    281.69206    78.743011    22.591636    25.561521 
   39800    240.44268   -240.35505    216009.12   -18639.937     1398.309   -20038.246   -461.16902    283.89856    78.741573    22.591034     25.57227 
   40000    234.28841   -383.99463    216009.12   -18623.525    1362.5184   -19986.043   -1062.5594    284.81797    78.739039    22.590404    25.587722 
   40200    243.17278    -385.5329    216009.12   -18642.086     1414.186   -20056.272   -1068.1191    284.30806    78.736448    22.591744    25.585674 
   40400    237.12915   -361.44542    216009.12   -18662.699    1379.0389   -20041.738   -968.96667    285.37714    78.736942    22.591332    25.608169 
   40600    245.84804   -353.55733    216009.12   -18581.179    1429.7441   -20010.923   -922.43443    284.62625    78.737333    22.590567    25.630269 
   40800    233.38126   -211.78189    216009.12   -18649.546    1357.2428   -20006.788   -353.07036    285.69516    78.736325    22.588975    25.648352 
   41000    237.93859   -350.20163    216009.12   -18608.023    1383.7462   -19991.769   -922.29544    286.94742    78.735243    22.589492    25.640244 
   41200    251.58333   -195.62362    216009.12   -18516.955    1463.0981   -19980.053   -285.79849    288.41053    78.734427    22.589376    25.617213 
   41400    240.21952   -423.46786    216009.12   -18584.503    1397.0111   -19981.514   -1208.3556    289.20161    78.734701    22.590459    25.619205 
   41600    245.96225   -374.62442    216009.12   -18547.999    1430.4083   -19978.408    -1061.732    290.25036    78.733447    22.588332    25.605232 
   41800    241.65582   -221.50047    216009.12   -18547.337     1405.364   -19952.701   -349.92837    291.81919    78.734034    22.587421    25.595105 
   42000    240.02324   -302.25379    216009.12   -18606.717    1395.8696   -20002.587   -728.87314    295.93999    78.736012    22.587759    25.575397 
   42200    231.14478   -267.19469    216009.12   -18647.921    1344.2364   -19992.158   -557.29646    296.86715    78.736079    22.587426    25.562547 
   42400    237.99499   -290.33271    216009.12   -18620.751    1384.0742   -20004.825   -687.97302    297.48202    78.737321    22.587434     25.55813 
   42600     242.8348   -379.31872    216009.12   -18631.365    1412.2205   -20043.586   -1056.1301    300.67925    78.740786    22.587749    25.541273 
   42800    243.91517   -338.12803    216009.12   -18614.797    1418.5034     -20033.3   -867.41712    301.11879    78.742465    22.585796     25.54398 
   43000    236.42126   -232.79613    216009.12   -18594.702    1374.9221   -19969.624   -401.83109    302.50834    78.741159    22.584642     25.53156 
   43200     234.9717   -307.05797    216009.12   -18599.133    1366.4921   -19965.625   -750.45768    304.64329    78.742478    22.585564     25.53099 
   43400    244.96151   -263.18283    216009.12   -18603.581    1424.5885    -20028.17   -537.07088    303.92735    78.742237    22.585226     25.50242 
   43600    236.02584   -346.68831    216009.12   -18613.456    1372.6225   -19986.078   -947.61998    304.57101    78.742264     22.58607    25.488878 
   43800    242.74214   -305.60227    216009.12   -18667.599    1411.6816    -20079.28   -776.40419    304.57342     78.73928    22.587002    25.482251 
   44000    233.41534   -218.27369    216009.12    -18670.54     1357.441   -20027.981   -331.79464     305.3337    78.737781    22.588912    25.444335 
   44200    238.64479   -347.99458    216009.12   -18624.283    1387.8532   -20012.137   -896.18385    306.03281    78.738094    22.584515    25.443118 
   44400    236.96561   -405.97911    216009.12   -18663.746    1378.0878   -20041.834   -1171.8753    306.78597    78.737535    22.585408    25.426332 
   44600    240.43989   -188.76042    216009.12   -18666.754    1398.2927   -20065.047   -210.01672    308.05549    78.734665    22.584112    25.442709 
   44800    232.36604   -321.50678    216009.12   -18656.707    1351.3387   -20008.046   -834.67901    310.01339    78.732056    22.583325     25.44028 
   45000    239.43953   -386.03859    216009.12   -18632.717     1392.475   -20025.192   -1086.6477    311.64566    78.733762    22.585346    25.443149 
   45200    241.10755   -289.92647    216009.12   -18599.881    1402.1755   -20002.056   -705.31231    312.08229    78.734273    22.585942    25.435166 
   45400    234.85213   -229.91156    216009.12   -18650.104    1365.7968   -20015.901   -384.39907    314.24955    78.735444    22.587958     25.44666 
   45600    240.40876   -340.13664    216009.12   -18570.971    1398.1117   -19969.082    -881.7948    316.54023    78.734845    22.587167    25.440578 
   45800    242.56597   -294.87639    216009.12   -18621.685     1410.657   -20032.343   -648.05547    317.50123     78.73491    22.588905    25.444465 
   46000    249.32651   -400.90158    216009.12   -18545.314    1449.9734   -19995.287   -1155.7508    317.98391    78.735082    22.586905     25.46452 
   46200    240.73486   -287.67012    216009.12   -18520.235    1400.0081   -19920.243   -681.05689    319.06442    78.732224    22.587465    25.456715 
   46400    239.60501   -243.70894    216009.12   -18599.485    1393.4374   -19992.922   -464.49889    318.99088    78.731502    22.591773    25.465658 
   46600    237.96513   -202.90557    216009.12   -18601.668    1383.9006   -19985.568   -270.25305    320.12137    78.731602    22.594633    25.473258 
   46800    242.52844    -267.9255    216009.12   -18593.103    1410.4388   -20003.542   -575.49604    324.18192    78.730804    22.595757    25.456199 
   47000    238.25044   -187.85966    216009.12   -18599.793    1385.5599   -19985.353   -254.18966    326.30264    78.730015    22.595482    25.462758 
   47200    235.04183   -282.46456    216009.12   -18688.889       1366.9   -20055.789   -643.95349    326.27627    78.731181    22.595791    25.448066 
   47400    241.12368   -384.62404    216009.12   -18640.306    1402.2693   -20042.575   -1080.5615    326.21487    78.734511    22.596611    25.443442 
   47600    234.04326   -326.48977    216009.12   -18646.954    1361.0927   -20008.047   -838.62014    327.53499    78.737532    22.597371    25.445679 
   47800    236.55898   -448.13956    216009.12   -18622.234     1375.723   -19997.957   -1301.9951    328.54665    78.738371    22.597159    25.441106 
   48000    236.87422   -362.55371    216009.12   -18626.064    1377.5564   -20003.621   -965.09433    328.21215    78.742873    22.596399    25.421667 
   48200    235.41813   -193.20838    216009.12   -18622.614    1369.0884   -19991.702   -205.66251    326.96884    78.744354    22.592407    25.408215 
   48400    241.59106   -390.30262    216009.12    -18579.23    1404.9874   -19984.217   -1100.2927     330.7339    78.743403    22.591284    25.396145 
   48600    231.94753   -292.19804    216009.12   -18641.087    1348.9049   -19989.992   -635.08461     329.2984     78.74205     22.59135    25.385895 
   48800    237.73557   -488.26638    216009.12   -18619.769    1382.5656   -20002.334   -1495.3342    329.85256    78.740233    22.591788    25.394892 
   49000      239.764    -257.6544    216009.12   -18602.328     1394.362    -19996.69   -518.24529    332.21788    78.737748    22.589323    25.428838 
   49200    242.59849   -248.59827    216009.12   -18574.889    1410.8462   -19985.735    -452.8565    333.41902    78.736908    22.587573    25.442299 
   49400    236.36994   -293.96116    216009.12   -18626.142    1374.6237   -20000.766   -701.17934    335.86689    78.734678    22.584119    25.473882 
   49600    234.89521   -247.49488    216009.12    -18608.15    1366.0473   -19974.198   -486.97836     335.5671    78.732437    22.583569     25.49207 
   49800     241.6453   -433.35086    216009.12   -18631.749    1405.3028   -20037.052   -1274.7515    336.78248    78.729943    22.585327    25.485265 
   50000     237.5139    -217.4439    216009.12   -18629.991    1381.2764   -20011.268   -308.63302    336.97164     78.72865    22.588585     25.45315 
   50200    247.19775   -261.74985    216009.12   -18580.772    1437.5935   -20018.366   -530.93145    337.93888    78.728547    22.588977    25.475671 
   50400    238.86499   -113.45509    216009.12   -18601.783    1389.1338   -19990.916    130.58187    339.89477    78.727714    22.588841    25.468946 
   50600    246.36516   -87.577022    216009.12   -18508.285    1432.7514   -19941.036    257.86497      341.193    78.727442    22.585951    25.444015 
   50800    242.55825   -379.43488    216009.12   -18679.623    1410.6122   -20090.235   -1015.4845    342.48872    78.726479    22.586388    25.419459 
   51000    232.91295   -340.01048    216009.12   -18637.876    1354.5193   -19992.396   -864.39258    345.01672    78.724034    22.587336    25.411385 
   51200    240.39882   -434.49323    216009.12   -18629.084    1398.0538   -20027.138   -1284.7987    344.92167     78.72205    22.590215    25.421336 
   51400    238.96786    -264.7761    216009.12   -18570.713     1389.732   -19960.445   -616.35423    343.15411     78.72314    22.593277    25.434241 
   51600    241.04852   -255.23492    216009.12    -18625.78    1401.8322   -20027.613   -517.99667    342.66297    78.723569    22.593359    25.449478 
   51800    238.11491   -370.35256    216009.12   -18565.284    1384.7716   -19950.055   -1008.5488    342.48931    78.723622    22.596291    25.444331 
   52000    226.77938    -429.1823    216009.12   -18630.808    1318.8492   -19949.657   -1210.0491    345.83077    78.722281    22.596108    25.440939 
   52200    236.99266   -259.71332    216009.12   -18660.185    1378.2451    -20038.43   -546.27396    346.71571    78.722561    22.594795    25.458733 
   52400    233.83734   -242.88305    216009.12    -18632.27    1359.8952   -19992.165   -455.45099     348.0663    78.723324    22.595103    25.475988 
   52600    242.77348   -287.22929    216009.12   -18577.915    1411.8639   -19989.779   -637.39484    350.43992    78.724046      22.5962    25.468855 
   52800    240.60071   -336.15297    216009.12   -18518.562     1399.228    -19917.79   -826.26565    352.11129    78.727221    22.598074    25.450142 
   53000    241.47911    -363.2943    216009.12   -18497.224    1404.3364   -19901.561   -963.43492    354.96047    78.725237    22.599091    25.449899 
   53200    241.26062   -330.62074    216009.12   -18627.668    1403.0657   -20030.734   -822.08557    354.65569    78.722225    22.599659    25.418667 
   53400    237.49458    -183.2412    216009.12   -18603.316    1381.1641    -19984.48   -238.84284    355.64625    78.722222     22.59738    25.425809 
   53600    230.89506   -330.41198    216009.12   -18647.421    1342.7841   -19990.205   -828.08779    354.77205    78.723858     22.59809     25.45164 
   53800    237.38659   -341.55967    216009.12   -18569.755    1380.5361   -19950.291   -900.38521    355.18607    78.725391    22.598795    25.455304 
   54000    240.90358   -250.65113    216009.12   -18551.352    1400.9893   -19952.341   -490.82393    357.55692    78.723481    22.598948    25.463739 
   54200    244.67776   -298.60118    216009.12   -18548.251    1422.9383    -19971.19   -701.00382    356.47615    78.724376    22.595495    25.463457 
   54400    247.45646   -253.82624    216009.12   -18510.525     1439.098   -19949.623   -496.22546    359.31681    78.724749    22.594614    25.482137 
   54600    244.51801   -114.48357    216009.12   -18578.693    1422.0093   -20000.702     96.27447    358.57706    78.725198    22.594031    25.478603 
   54800    240.54169   -303.13351    216009.12    -18574.55    1398.8847   -19973.435   -715.39847    362.76076    78.722389    22.593087    25.479738 
   55000    245.15688   -216.30089    216009.12   -18535.161    1425.7246   -19960.886   -364.12984    363.69652    78.721858    22.594399    25.496058 
   55200     234.3583   -269.65704    216009.12   -18652.723    1362.9248   -20015.648   -569.47158     362.1133    78.720857    22.597835    25.520096 
   55400    241.78601   -187.72698    216009.12   -18573.914    1406.1211   -19980.035   -251.13236    362.13864    78.719747    22.598561    25.501994 
   55600     241.7702   -365.23681    216009.12   -18569.679    1406.0292   -19975.708   -1001.2921    364.21488    78.718768     22.60009    25.495079 
   55800    240.33251   -375.22388    216009.12   -18474.973    1397.6683   -19872.641   -1044.7037    368.82709    78.718381    22.599792    25.481712 
   56000    240.89289   -184.03518    216009.12   -18560.942    1400.9271    -19961.87    -233.0736    369.35456    78.721161    22.597567    25.469327 
   56200    240.24159   -428.68481    216009.12   -18550.999    1397.1395   -19948.139   -1265.9409     371.6582    78.720517    22.596022    25.470936 
   56400    234.91776   -240.89782    216009.12   -18645.681    1366.1784   -20011.859   -505.01889    373.24556    78.720959     22.59783    25.480449 
   56600    229.07668   -277.02328    216009.12   -18731.218    1332.2093   -20063.428   -614.94165    374.84496    78.718563    22.599977    25.479924 
   56800     238.3729   -342.85718    216009.12   -18625.704     1386.272   -20011.976   -921.13891    375.46713    78.717499    22.598087     25.47735 
   57000    233.22609   -342.91843    216009.12   -18674.596    1356.3404   -20030.937    -900.5658    375.09858    78.714417    22.597245    25.478472 
   57200    245.37143   -312.18095    216009.12   -18611.012    1426.9724   -20037.984    -736.9296    375.99458    78.715491    22.599025    25.478711 
   57400    239.80016   -422.27259    216009.12   -18687.551    1394.5723   -20082.123   -1275.1147    376.33656    78.716378    22.599303    25.492215 
   57600    236.71259   -377.28086    216009.12   -18724.665    1376.6164   -20101.282     -1074.43    376.36378    78.715559    22.596248    25.507962 
   57800    238.50962   -433.20162    216009.12   -18634.447    1387.0671   -20021.515   -1284.4442    378.26938    78.712507    22.595471    25.489928 
   58000    240.08852   -305.94458    216009.12   -18617.693    1396.2493   -20013.942   -721.28884    379.19321    78.711677    22.593889     25.48873 
   58200    238.50704   -347.19968    216009.12   -18556.637    1387.0521   -19943.689   -893.99047    381.24692    78.713271    22.591989    25.509607 
   58400    237.89401    -168.3886    216009.12   -18606.762     1383.487   -19990.249   -145.15684    381.44171     78.71253    22.590718    25.527126 
   58600    238.25395   -372.72417    216009.12   -18611.584    1385.5803   -19997.164   -1046.9043    383.87535     78.71209    22.591783    25.526371 
   58800    244.48675   -261.91938    216009.12    -18589.49    1421.8275   -20011.318    -532.5166    384.15509    78.713718    22.592194    25.531308 
   59000    241.76547   -461.90596    216009.12     -18543.2    1406.0017   -19949.201   -1370.8833    383.16106    78.716337    22.591131    25.536821 
   59200    240.50396   -289.34213    216009.12   -18587.556    1398.6653   -19986.221   -666.84445    383.78165    78.718697    22.591128    25.516544 
   59400    236.98536   -388.63869    216009.12   -18566.351    1378.2027   -19944.554    -1072.984     384.1805    78.720091     22.59135    25.521289 
   59600    236.93162   -202.71274    216009.12   -18600.045    1377.8901   -19977.935   -300.20725    383.75249    78.720669    22.591031    25.523828 
   59800    232.82668   -300.99616    216009.12   -18569.955    1354.0176   -19923.972   -731.71741    385.57734    78.718751    22.589321    25.532779 
   60000    243.23068   -326.13881    216009.12   -18550.607    1414.5227    -19965.13   -800.63249    387.76513    78.717839    22.590653    25.527186 
   60200    235.68699   -450.20078    216009.12   -18590.473    1370.6519   -19961.125   -1354.2318    388.40186    78.717391    22.590244    25.514668 
   60400    236.26177    -458.9404    216009.12   -18560.507    1373.9946   -19934.501     -1390.43    389.45575    78.715924    22.590003    25.496962 
   60600     239.3038   -234.96179    216009.12   -18529.223    1391.6857   -19920.909   -460.61262    390.44667     78.71385    22.590764    25.490623 
   60800    252.94121   -481.41666    216009.12   -18484.028    1470.9949   -19955.023   -1462.9752    392.95066    78.713883    22.589749    25.527313 
   61000    237.99306   -371.76649    216009.12   -18559.736     1384.063   -19943.799   -996.53947    395.46677    78.714963    22.590412    25.515773 
   61200    241.07303   -281.86152    216009.12   -18525.993    1401.9748   -19927.968    -580.1376    396.91809    78.715983    22.589774    25.527888 
   61400     235.8366   -293.49257    216009.12   -18565.659     1371.522   -19937.181   -667.01216    399.21695    78.715341    22.589435    25.508495 
   61600    235.35379   -430.21746    216009.12   -18571.895    1368.7142    -19940.61   -1249.6486    400.60196    78.714117    22.590616    25.513326 
   61800    240.01536   -133.22994    216009.12   -18593.694    1395.8238   -19989.517    16.442667    400.74471    78.713393    22.593026    25.505427 
   62000    240.59408   -323.57048    216009.12   -18577.545    1399.1894   -19976.734   -857.91118    403.05701    78.712991     22.59073    25.512936 
   62200    244.89173   -369.32281    216009.12   -18578.466    1424.1827   -20002.649   -1031.2272    402.95911    78.712217    22.591473    25.531614 
   62400    243.99997   -356.64588    216009.12    -18562.11    1418.9966   -19981.107   -975.66785    405.24134    78.710496     22.59101    25.539641 
   62600    236.70907   -107.31499    216009.12   -18588.614    1376.5959    -19965.21     115.3022    406.08142     78.70809    22.591233    25.549207 
   62800    234.58913   -428.13091    216009.12   -18665.903    1364.2673    -20030.17   -1299.6849    405.42108    78.707942    22.592768    25.532026 
   63000    235.10954   -231.30215    216009.12   -18593.635    1367.2937   -19960.929   -395.97278     403.4314    78.708783    22.593994    25.550388 
   63200     237.3908   -387.00851    216009.12   -18580.727    1380.5606   -19961.288   -1051.3031    404.10234    78.706016    22.592986    25.552588 
   63400    236.58922   -319.10154    216009.12   -18649.557    1375.8989   -20025.456   -779.66757    405.49573    78.706292    22.591348    25.565351 
   63600    238.05302   -522.18004    216009.12   -18617.478    1384.4117    -20001.89   -1632.5073    406.98663    78.705963     22.59181     25.59807 
   63800    235.00352   -166.59944    216009.12   -18635.332    1366.6772   -20002.009   -155.62207    406.90446    78.703306    22.588919    25.587253 
   64000    238.61252   -459.18794    216009.12   -18551.582    1387.6655   -19939.248   -1392.1409    412.35736    78.702441     22.58983    25.582911 
   64200    238.61218   -189.81323    216009.12   -18565.565    1387.6635   -19953.229   -206.97729    413.43961    78.701532     22.58856    25.570956 
   64400    239.72652   -143.91841    216009.12   -18595.624     1394.144   -19989.768   -37.286938    415.63067    78.700263    22.588686    25.551085 
   64600    231.94924   -393.47668    216009.12   -18630.529    1348.9148   -19979.444   -1097.5263    415.38942    78.701259    22.589801    25.567049 
   64800    238.21298   -204.88173    216009.12   -18585.055    1385.3419   -19970.397   -308.23366     416.8372     78.70464    22.590434     25.56555 
   65000    247.92486   -33.609583    216009.12   -18510.114     1441.822   -19951.936    440.42879     418.2346    78.703373    22.588338    25.581969 
   65200    235.87645   -308.75556    216009.12   -18580.601    1371.7538   -19952.354    -715.5759    420.00762     78.70245    22.587511    25.574805 
   65400    242.16092   -249.33727    216009.12   -18600.606    1408.3015   -20008.908   -530.31936    419.36706    78.705342    22.586807    25.564303 
   65600    238.22214   -278.71393    216009.12   -18530.868    1385.3953   -19916.263   -595.79598    422.19335    78.705143    22.588772    25.544783 
   65800    241.01974   -262.10067    216009.12   -18532.336    1401.6649       -19934   -518.55922    423.95499    78.707745    22.586032    25.535924 
   66000    236.83238    -206.7596    216009.12   -18550.136     1377.313    -19927.45   -319.82898    423.77653    78.711473    22.584606    25.562725 
   66200    237.88772   -462.90595    216009.12   -18598.071    1383.4504   -19981.521   -1347.0996    426.11027    78.713791    22.584557    25.539881 
   66400    235.67736    -256.5072    216009.12   -18623.207    1370.5959   -19993.803   -521.72205      426.063     78.71136    22.584622    25.516555 
   66600    237.68824   -238.55647    216009.12   -18639.159    1382.2903   -20021.449   -403.95599    426.87153     78.70833    22.583961    25.489476 
   66800    230.47303   -339.05818    216009.12    -18673.02    1340.3299    -20013.35   -896.96397     425.3099    78.707995    22.583543     25.49398 
   67000    233.25745    -299.0447    216009.12   -18716.296    1356.5228   -20072.819   -673.24201    428.84723    78.708607    22.586139    25.502829 
   67200    235.83619   -320.47093    216009.12   -18640.066    1371.5196   -20011.586   -805.61122    429.83723    78.707108    22.585415    25.488238 
   67400    235.00128   -372.21103    216009.12   -18584.368    1366.6641   -19951.033   -1035.0137    429.15699    78.707224    22.583517    25.497432 
   67600    244.78239   -219.72859    216009.12   -18528.783    1423.5468   -19952.329   -387.84037    429.66306    78.707303    22.582151    25.495007 
   67800    232.52176   -345.60538    216009.12   -18593.568    1352.2443   -19945.812   -847.45742    429.54636    78.707619    22.581976    25.474834 
   68000     235.4259   -255.28282    216009.12   -18599.967    1369.1336     -19969.1   -489.50026    429.78695    78.707447    22.581049     25.45867 
   68200    239.64116   -271.87128    216009.12   -18601.283    1393.6476   -19994.931   -546.22221    431.54396     78.70647    22.582715    25.484577 
   68400    240.35067   -156.25432    216009.12   -18525.308    1397.7738   -19923.082   -66.719457    431.51335    78.705557    22.582768    25.494918 
   68600    241.92048   -293.95874    216009.12   -18585.202    1406.9032   -19992.105   -680.07218    433.20264    78.704701    22.582179    25.481152 
   68800    237.48214   -267.04775    216009.12   -18562.051    1381.0917   -19943.143   -564.93807    434.94771    78.704259    22.577634    25.443552 
   69000    237.40181   -299.69004    216009.12   -18563.976    1380.6245     -19944.6   -731.77967    438.23489    78.703672    22.576018    25.448708 
   69200    236.83922   -450.39291    216009.12   -18630.409    1377.3528   -20007.762   -1341.6085    439.53808    78.703182    22.575794    25.463289 
   69400    236.20611   -259.61035    216009.12   -18666.521    1373.6709   -20040.192   -555.97308    438.40339    78.702161    22.574759    25.469373 
   69600    253.85069   -351.10643    216009.12   -18481.052     1476.284   -19957.336   -909.66391    440.49057     78.70375    22.575297    25.477399 
   69800    238.39758   -311.70145    216009.12   -18601.819    1386.4155   -19988.235   -734.04604    441.16345    78.703816    22.574647    25.497538 
   70000     244.6553   -223.35877    216009.12     -18556.6    1422.8077   -19979.407   -399.79426    443.70226     78.70319    22.574566    25.497525 
   70200    242.57602   -399.26453    216009.12   -18532.508    1410.7155   -19943.224   -1152.4632    445.10673    78.702495    22.573951    25.483242 
   70400    242.38857   -238.04505    216009.12   -18491.525    1409.6254    -19901.15   -399.66695    445.15678    78.702722    22.572628    25.490476 
   70600     237.0009   -315.39171    216009.12    -18569.44     1378.293   -19947.733   -777.57063    448.72691    78.704975    22.572746    25.498512 
   70800    237.83864   -214.65643    216009.12   -18568.348     1383.165   -19951.513   -377.82784    448.17646    78.703548     22.57347    25.505966 
   71000    242.99153   -335.93919    216009.12   -18571.722    1413.1319   -19984.854   -831.54751    450.64357    78.702761    22.571757    25.492294 
   71200    239.35821    -184.0873    216009.12   -18565.763    1392.0022   -19957.765   -209.33017     452.0015    78.703657    22.573546    25.488078 
   71400    236.35078   -199.99182    216009.12   -18588.072    1374.5123   -19962.584   -276.62389    454.28692    78.703013    22.572394    25.494354 
   71600    238.79684   -367.87898    216009.12   -18539.609    1388.7375   -19928.347   -980.53169    455.55889    78.701989    22.572491    25.453172 
   71800    238.76704   -321.19705    216009.12   -18658.185    1388.5642   -20046.749   -797.64861    456.20559    78.701693    22.569506    25.445875 
   72000    237.79278     -368.418    216009.12   -18684.949    1382.8983   -20067.847   -1029.5055    456.21611    78.704254     22.56993    25.444803 
   72200    244.73596   -222.04391    216009.12   -18544.689    1423.2768   -19967.966   -379.30722    455.88803    78.704583    22.571018    25.459339 
   72400    237.66841   -464.60632    216009.12   -18606.037     1382.175   -19988.212   -1372.7593    456.78235     78.70447    22.571765    25.445115 
   72600    241.78086   -290.83806    216009.12   -18539.716    1406.0912   -19945.807   -665.91385    454.95054    78.706482     22.57206    25.459507 
   72800    243.96497   -456.27902    216009.12   -18534.739     1418.793   -19953.532   -1387.0163    457.54563    78.705635    22.570773    25.440032 
   73000    240.39186   -370.41242    216009.12   -18578.578    1398.0134   -19976.591    -1001.478     459.1709    78.704412    22.568852    25.433416 
   73200    239.90692   -285.59811    216009.12    -18488.27    1395.1932   -19883.464   -613.69204     460.8092      78.7064    22.567036    25.414298 
   73400     239.9277   -362.28356    216009.12   -18522.432     1395.314   -19917.746   -974.67498    461.15388    78.707519     22.56699    25.428295 
   73600    245.26659   -246.77199    216009.12    -18511.86    1426.3626   -19938.223   -483.78058    462.83551    78.710604    22.567628    25.412922 
   73800    236.01471   -148.00665    216009.12   -18639.904    1372.5578   -20012.462   -25.331439    460.87087    78.710487    22.568996     25.41569 
   74000    232.22374   -238.32615    216009.12   -18627.047    1350.5112   -19977.558   -437.63551     460.8548    78.709763    22.568647    25.422582 
   74200    236.03882   -253.18244    216009.12   -18540.446     1372.698   -19913.144   -483.87799    461.29859    78.711138    22.566692    25.419283 
   74400    235.71927   -244.65465    216009.12   -18580.649    1370.8397   -19951.488   -454.27435    461.26341    78.709239    22.563791    25.400015 
   74600    236.85659   -299.25542    216009.12   -18613.701    1377.4538   -19991.155   -684.65275     460.8175    78.710274    22.564844    25.400326 
   74800     240.6871   -216.34854    216009.12   -18624.691    1399.7303   -20024.422   -339.17461    462.32633    78.713438    22.563682    25.374795 
   75000     239.4511   -327.75831    216009.12   -18623.487    1392.5423    -20016.03   -795.78304    464.24164    78.713126    22.563482    25.368678 
   75200     238.0335   -321.26804    216009.12   -18546.137    1384.2982   -19930.435   -804.95272    466.76066    78.715151     22.56158    25.369236 
   75400    242.91791   -289.21882    216009.12   -18594.532    1412.7038   -20007.236    -665.0275    467.70595    78.716081    22.560886    25.364359 
   75600    241.97457   -331.72045    216009.12    -18558.97    1407.2177   -19966.188   -849.10359    468.63391    78.714931    22.560632    25.384878 
   75800    245.49874   -342.84052    216009.12   -18542.499    1427.7127   -19970.212   -939.48238     467.5458    78.716437    22.560307    25.394041 
   76000    239.48149   -220.59538    216009.12   -18566.963    1392.7191   -19959.682   -388.98876    467.81151    78.716553    22.557703    25.393806 
   76200    236.09522   -240.68287    216009.12   -18641.062     1373.026   -20014.088   -417.53748    468.44387    78.719126    22.556154    25.382357 
   76400    238.97013    -261.7352    216009.12    -18601.25    1389.7452   -19990.995    -557.5373    468.92113    78.719507    22.555283    25.381332 
   76600     239.6666   -237.01479    216009.12   -18579.784    1393.7956   -19973.579   -480.46454    471.04527    78.720297    22.554895    25.396653 
   76800    240.16045   -340.85316    216009.12   -18614.304    1396.6676   -20010.972   -919.59487    470.75611    78.720991    22.554627    25.383375 
   77000     235.5898   -367.03059    216009.12   -18588.005    1370.0867   -19958.092   -1040.1634    471.61866    78.720064    22.558263    25.374368 
   77200      245.509    -199.3654    216009.12    -18564.05    1427.7724   -19991.822   -304.72526     472.2539    78.721254    22.555537    25.366292 
   77400    242.69043   -386.65879    216009.12    -18613.31    1411.3808    -20024.69   -1125.3357     473.0526    78.722882    22.554047    25.348709 
   77600    231.31684   -305.48658    216009.12   -18612.037    1345.2371   -19957.274   -726.44471    475.35613    78.721787    22.554853     25.35352 
   77800    240.86246    -281.7723    216009.12   -18570.779    1400.7502   -19971.529   -644.74962     475.9266    78.721817    22.551897    25.359058 
   78000    239.43176   -456.22859    216009.12   -18612.523    1392.4299   -20004.953   -1360.7661    478.23758    78.721348    22.549223    25.367405 
   78200    246.11686   -384.48176    216009.12   -18576.455    1431.3075   -20007.762   -1091.2924    480.01325    78.720174    22.548954    25.360246 
   78400     239.6416    -217.9852    216009.12       -18548    1393.6502    -19941.65   -385.81021    481.52227    78.720012    22.548353    25.367329 
   78600    239.28418   -181.57272    216009.12   -18538.128    1391.5716   -19929.699   -224.95086    481.83498    78.721916    22.548543    25.348841 
   78800    237.58926   -175.34932    216009.12   -18557.664    1381.7147   -19939.378    -170.2688     484.1277    78.720654    22.549257    25.366105 
   79000    241.59183   -345.99743    216009.12   -18538.426    1404.9919   -19943.418    -910.8596    484.03295    78.723667    22.548779     25.36043 
   79200    240.42285   -128.21378    216009.12   -18530.397    1398.1936   -19928.591    17.111246    486.07296    78.723652    22.549987    25.337201 
   79400    246.54116   -9.8450495    216009.12   -18521.115     1433.775    -19954.89    540.23699    486.89638     78.72552    22.548136    25.332869 
   79600    240.88942   -466.96272    216009.12   -18618.708     1400.907   -20019.615   -1419.8026    489.96006    78.724612    22.549953    25.336358 
   79800    235.13052   -195.72781    216009.12   -18595.794    1367.4157   -19963.209   -242.35408    491.80688    78.727209    22.551219     25.36205 
   80000    237.78096   -335.69014    216009.12   -18604.626    1382.8296   -19987.456   -836.75739    493.64279    78.729299     22.54987    25.335696 
   80200     234.4726   -266.47479    216009.12   -18604.519    1363.5896   -19968.109   -539.76876    493.17114     78.73166    22.549377    25.344363 
   80400    241.99519   -219.30999    216009.12   -18611.057    1407.3376   -20018.395   -330.28569    497.30091    78.733851    22.550007    25.360757 
   80600    243.72246   -285.71594    216009.12   -18597.906    1417.3827   -20015.289   -607.47513    501.51295    78.733294    22.548641    25.353059 
   80800    240.62904   -467.56034    216009.12   -18601.491    1399.3927   -20000.883   -1399.1051    503.09901    78.731889    22.547431    25.354435 
   81000    237.61599   -260.54366    216009.12   -18562.559    1381.8701   -19944.429   -480.34315    502.74501    78.730305    22.547858    25.358051 
   81200    242.74191   -258.16347    216009.12   -18590.589    1411.6803    -20002.27   -531.60644    501.77567    78.732912    22.547941    25.365663 
   81400     231.1353   -282.01326    216009.12    -18579.58    1344.1813   -19923.762   -595.61601    501.96492    78.731728    22.548122    25.375927 
   81600    232.96013   -203.68521    216009.12   -18593.594    1354.7937   -19948.388   -311.19128    500.11574    78.730808    22.548173     25.38286 
   81800    226.97469   -255.34707    216009.12   -18672.012     1319.985   -19991.997   -523.83755    501.82385    78.730868    22.547491    25.399953 
   82000    241.04413    -260.4206    216009.12   -18568.291    1401.8067   -19970.097   -515.39395    503.64756    78.732636    22.547845    25.429365 
   82200    235.01798   -367.42689    216009.12   -18548.606    1366.7613   -19915.367   -965.03155     503.8441    78.732766    22.548495    25.436825 
   82400    238.91277   -360.08654    216009.12   -18595.656    1389.4117   -19985.067   -925.86459    506.29948    78.731157    22.548227    25.438349 
   82600    242.98668   -316.92788    216009.12   -18540.544    1413.1037   -19953.647   -733.46887    506.88315    78.731369     22.54668    25.434956 
   82800    236.91587   -352.92528    216009.12   -18624.422    1377.7985    -20002.22   -953.08514    508.80705    78.730535    22.545285    25.443079 
   83000    244.60886    -320.2661    216009.12   -18557.467    1422.5376   -19980.005    -792.4544     506.7629    78.729741    22.544224    25.446784 
   83200    243.62203   -354.06702    216009.12   -18593.455    1416.7987   -20010.254   -949.13517    508.06775    78.731473    22.544376    25.451664 
   83400    237.45884   -264.84028    216009.12   -18637.681    1380.9563   -20018.638   -555.34815    506.72091    78.734802    22.542887    25.474476 
   83600    236.94787   -253.02427    216009.12   -18692.275    1377.9846    -20070.26   -526.81683    508.10807    78.735041    22.540728    25.483579 
   83800    236.37435   -434.80331    216009.12    -18617.57    1374.6493   -19992.219   -1262.7574    508.47719    78.735596     22.54055    25.506846 
   84000    243.66117   -295.22582    216009.12    -18609.68    1417.0262   -20026.706   -688.47854    509.11457    78.734537     22.54035    25.525231 
   84200    239.78047   -426.71285    216009.12   -18595.319    1394.4578   -19989.777   -1216.8981     509.6909    78.734827    22.541396    25.518559 
   84400    234.82887   -433.90817    216009.12    -18626.41    1365.6615   -19992.071   -1244.0972    509.62246    78.732784    22.542301    25.505374 
   84600    243.29111   -180.52992    216009.12   -18598.564    1414.8741   -20013.438   -155.73191    508.23601     78.73313    22.544964    25.502196 
   84800    233.95018   -292.96248    216009.12   -18606.449    1360.5514       -19967   -690.91641    510.42684     78.73179    22.544796    25.539469 
   85000    244.71836   -254.96256    216009.12   -18600.496    1423.1744    -20023.67   -482.16094    510.34698    78.729338    22.542136    25.525873 
   85200    234.48864   -300.76146    216009.12   -18604.209    1363.6829   -19967.892   -731.83171    511.74905    78.729595     22.54207    25.517976 
   85400    232.98918   -320.09365    216009.12   -18634.972    1354.9626   -19989.934   -777.57897    512.70863    78.731273    22.543888    25.509301 
   85600    232.49873   -196.35037    216009.12    -18620.96    1352.1104   -19973.071   -298.54559    513.86146    78.733833    22.545225    25.529328 
   85800    240.76588   -389.28923    216009.12   -18544.766    1400.1885   -19944.954   -1082.0243    516.01293    78.732459    22.546281    25.522809 
   86000    238.34785   -302.53121    216009.12    -18616.01    1386.1263   -20002.137   -763.27533    518.11286    78.732389    22.547946    25.518744 
   86200    243.37716    -227.7735    216009.12   -18606.545    1415.3745   -20021.919   -391.66845    518.41647    78.729378    22.549829     25.50321 
   86400    238.24049   -292.38292    216009.12   -18665.152     1385.502   -20050.654   -654.47951    520.46566    78.729358    22.549125    25.491978 
   86600    241.13835   -337.62019    216009.12   -18565.355    1402.3547    -19967.71   -853.48746    522.71516    78.728236    22.548152    25.504156 
   86800    245.63026   -182.66768    216009.12   -18600.539    1428.4776   -20029.017   -211.77977    521.19361    78.729355    22.547085    25.522805 
   87000    243.19556   -308.42593    216009.12   -18597.936    1414.3185   -20012.255   -708.02091    521.20493    78.729477    22.546764    25.544469 
   87200    237.39209   -276.36261    216009.12   -18575.047     1380.568   -19955.615   -590.04461    522.58256    78.730123    22.545236     25.50983 
   87400     242.0948   -324.34954    216009.12   -18600.462    1407.9169   -20008.378   -786.69605    523.53591     78.73203     22.54563    25.514372 
   87600    239.13918   -288.38206    216009.12   -18613.638    1390.7284   -20004.367   -644.69764    523.00381    78.731593    22.546352     25.51103 
   87800    231.66086   -273.55701    216009.12   -18587.674    1347.2377   -19934.912   -559.06398    523.28362    78.729501    22.546111    25.519313 
   88000    243.52329    -428.3514    216009.12   -18532.062    1416.2244   -19948.286   -1292.8443     525.3163    78.729554    22.548497    25.528872 
   88200    239.35449   -267.33624    216009.12   -18607.133    1391.9805   -19999.113   -535.35065    526.81532    78.729121    22.549267    25.527311 
   88400    241.32111   -284.86068    216009.12   -18516.025    1403.4175   -19919.443   -607.77424    527.18459    78.728588    22.550396    25.532184 
   88600    237.72699   -254.68484    216009.12   -18566.477    1382.5157   -19948.992   -540.53995    528.46892    78.730249    22.550415     25.53621 
   88800    226.99185   -313.03689    216009.12   -18655.271    1320.0848   -19975.356   -735.19533    532.74125    78.731088    22.550311    25.555376 
   89000    238.10224   -252.03758    216009.12   -18574.822     1384.698    -19959.52   -478.53388    533.36561    78.730477    22.549256    25.563699 
   89200    238.09063    -451.7994    216009.12   -18560.492    1384.6304   -19945.122   -1383.0189    535.04586    78.730312    22.550641    25.570809 
   89400    235.99902   -288.99053    216009.12   -18539.803    1372.4666    -19912.27   -635.48414    534.88392    78.729571    22.553073    25.575563 
   89600     236.3719   -479.08933    216009.12   -18653.813    1374.6351   -20028.448   -1451.1875    537.38695    78.729521    22.551634    25.591396 
   89800    243.99215   -302.06217    216009.12   -18527.013    1418.9511   -19945.964   -706.12385    537.23191    78.727619    22.550798    25.563894 
   90000    239.07569   -359.28463    216009.12   -18562.264    1390.3591   -19952.623   -903.11848    538.66382    78.728349    22.549806    25.570656 
   90200    242.66397   -259.45029    216009.12   -18599.635    1411.2269   -20010.862   -492.32603    538.37299    78.731342    22.550214    25.560643 
   90400    247.84884   -208.13213    216009.12   -18587.674    1441.3799   -20029.054   -242.96517    539.24765    78.732871     22.55233    25.547026 
   90600    244.01942   -199.33149    216009.12   -18581.505    1419.1097   -20000.615   -249.94387    539.95481    78.731607    22.553024    25.559987 
   90800    243.66074    -149.1436    216009.12   -18601.307    1417.0238    -20018.33   -113.61068    541.91507    78.733616    22.549941    25.559881 
   91000    230.21497   -269.39035    216009.12   -18631.922    1338.8291   -19970.752   -588.27039    542.81835    78.732433    22.549142    25.542764 
   91200    236.12003   -320.06079    216009.12   -18717.797    1373.1703   -20090.967   -792.97211     543.8918    78.731165    22.547881    25.546234 
   91400    233.38614   -89.344966    216009.12   -18661.115    1357.2712   -20018.386    245.94209     542.1094    78.732082    22.547143    25.523006 
   91600    241.52842   -419.23289    216009.12   -18559.523    1404.6231   -19964.146   -1195.1785    545.72163    78.732961    22.545042    25.512321 
   91800    249.43195   -235.19809    216009.12   -18584.989    1450.5866   -20035.575   -403.56661    544.29199    78.733546    22.546309    25.525861 
   92000    242.53121   -345.92713    216009.12   -18612.905    1410.4549    -20023.36   -876.61763    546.00546    78.733406    22.546627    25.524379 
   92200    234.08823   -401.16782    216009.12   -18628.189    1361.3543   -19989.544   -1116.0901    547.64618    78.734098    22.547963    25.543929 
   92400    237.51419   -405.85309    216009.12   -18576.367    1381.2781   -19957.645   -1208.7061    546.19718    78.735675    22.548111    25.539699 
   92600    247.70929   -425.63627    216009.12   -18536.125    1440.5683   -19976.694   -1249.1416    548.79937    78.736816    22.549341    25.541298 
   92800    246.08708   -242.16355    216009.12   -18629.286    1431.1343    -20060.42   -449.96864    552.06041    78.735685    22.547309    25.526378 
   93000    236.80251    -195.1714    216009.12   -18661.684    1377.1393   -20038.824   -216.67499    551.92562    78.737604    22.546693    25.563684 
   93200    239.49759   -413.85031    216009.12    -18606.14    1392.8127   -19998.953   -1210.7521    553.05475    78.736954    22.546307    25.570833 
   93400     240.3982   -372.78524    216009.12   -18686.273    1398.0503   -20084.324    -1037.992    554.77341    78.737952    22.545297     25.56121 
   93600    240.58243   -271.76857    216009.12   -18650.258    1399.1216    -20049.38   -552.78464    556.58621    78.738564     22.54622    25.529882 
   93800    239.90591   -409.92741    216009.12   -18656.704    1395.1873   -20051.891   -1152.6313    557.79794    78.738109    22.547195    25.503277 
   94000    232.38188   -273.69739    216009.12   -18669.509    1351.4309    -20020.94   -580.22986    557.79535    78.737509    22.548259    25.510658 
   94200    242.21286   -322.30313    216009.12   -18566.607    1408.6035   -19975.211   -802.44424    561.99342    78.739991    22.549495    25.526185 
   94400    236.35626   -366.00526    216009.12   -18617.577    1374.5441   -19992.121   -992.93101    561.35684     78.73776    22.551863    25.513921 
   94600    236.98929   -220.36499    216009.12   -18601.338    1378.2256   -19979.564   -365.40494    560.18298    78.735653    22.553799     25.50397 
   94800    236.06615   -383.23697    216009.12   -18586.467    1372.8569   -19959.324   -1043.9901    563.84815    78.737531    22.554682    25.507194 
   95000    238.20892   -345.72785    216009.12   -18585.318    1385.3184   -19970.637   -921.02263    561.00803    78.737191    22.557963    25.486686 
   95200    233.76243   -363.53712    216009.12   -18551.302    1359.4595   -19910.761   -950.37174    569.40383    78.737212    22.560417    25.509464 
   95400    239.97214   -245.72794    216009.12   -18570.215    1395.5725   -19965.787   -404.99802    569.11987    78.736478    22.560334    25.498579 
   95600    236.43569   -383.28846    216009.12   -18550.935     1375.006   -19925.941    -1050.924    570.80249    78.736264    22.560468    25.493592 
   95800    242.33306   -311.79443    216009.12   -18568.548    1409.3025   -19977.851    -696.7125    569.98089    78.734359    22.560209    25.493516 
   96000    237.63759   -179.85461    216009.12    -18553.62    1381.9958   -19935.615    -195.9212    568.60169    78.734206     22.55938    25.480796 
   96200    243.52076   -287.39196    216009.12   -18516.479    1416.2097   -19932.689   -695.06517    571.25283    78.733324    22.558706    25.469784 
   96400    240.49074   -348.30215    216009.12   -18520.593    1398.5885   -19919.181   -881.26953    573.30849    78.734731    22.560962    25.459586 
   96600    232.54355   -392.19082    216009.12   -18570.925    1352.3711   -19923.296   -1111.2504    578.14508    78.732073    22.562915    25.454441 
   96800    230.41231   -456.86741    216009.12   -18565.532    1339.9767   -19905.509   -1364.7525    580.95328    78.733798    22.562988    25.454151 
   97000    235.86047   -344.21193    216009.12   -18631.833    1371.6608   -20003.493    -867.7591    582.29513    78.734377    22.563099    25.437029 
   97200      235.766   -277.37789    216009.12   -18639.111    1371.1114   -20010.222   -624.59171    582.26077    78.732076    22.560858     25.41661 
   97400    244.21537   -253.25063    216009.12   -18605.621    1420.2492    -20025.87   -485.05032    584.74239    78.730178    22.561526    25.408679 
   97600    244.41459   -410.16483    216009.12   -18556.696    1421.4078   -19978.104   -1169.0397     584.2366    78.726722    22.561492    25.397726 
   97800    240.54616   -215.82296    216009.12   -18582.831    1398.9107   -19981.742   -305.74643    586.14137    78.727349    22.559722    25.406298 
   98000    240.88703   -317.84566    216009.12   -18637.614    1400.8931   -20038.507   -752.09388    587.33738    78.727219    22.557605    25.416912 
   98200    237.38789   -400.66676    216009.12   -18672.834    1380.5436   -20053.377   -1138.9122    587.33939    78.727687     22.55725    25.404192 
   98400     241.7918   -489.52593    216009.12   -18637.884    1406.1548   -20044.038   -1477.7905    592.02463    78.726558    22.555661    25.399777 
   98600    242.78737   -431.41371    216009.12   -18675.614    1411.9446   -20087.559   -1326.5048    592.23912    78.725887    22.554783    25.401539 
   98800    244.62181   -217.50965    216009.12   -18596.791    1422.6129   -20019.404    -324.3719    593.53692    78.725746     22.55405    25.414674 
   99000    242.16473   -493.16454    216009.12   -18643.821    1408.3236   -20052.145   -1535.8334    594.78404    78.727223    22.553377    25.453217 
   99200    243.63484   -347.88131    216009.12   -18651.679    1416.8731   -20068.552   -922.58212    594.04629     78.72775    22.555059    25.448032 
   99400    240.93265   -308.94601    216009.12   -18688.508    1401.1584   -20089.667   -722.78478    593.16762    78.725577    22.552754    25.428595 
   99600    239.21049    -308.6382    216009.12   -18635.907     1391.143   -20027.051   -714.78778    595.54206    78.722977    22.553484    25.450337 
   99800    240.41644   -277.61892    216009.12   -18660.687    1398.1563   -20058.843   -593.29708    596.55904    78.722147    22.551218    25.440707 
  100000    247.19048   -334.10039    216009.12   -18640.248    1437.5511   -20077.799   -810.81324    598.78404    78.723133    22.547884    25.437547 
  100200    236.10093   -350.92703    216009.12   -18697.034    1373.0592   -20070.094   -929.79667    597.20585    78.720528    22.547896    25.432903 
  100400    240.45673   -305.71099    216009.12   -18631.821    1398.3906   -20030.212   -680.62025    598.82506     78.71989     22.54845    25.417641 
  100600     238.5253   -309.77104    216009.12   -18633.683    1387.1583   -20020.841     -744.485    600.02162    78.721626    22.547011    25.409072 
  100800    230.38612   -356.26287    216009.12   -18635.123    1339.8244   -19974.948    -933.3304    600.07183    78.720264    22.547444     25.41687 
[...]
 5175800     220.6545   -319.10958    216009.12   -20705.385    1283.2295   -21988.614   -742.47127     10259.07     78.15677    21.908309    25.683212 
 5176000    226.78423   -297.32911    216009.12   -20698.243    1318.8774   -22017.121   -641.61853    10258.747    78.156622    21.908613    25.679387 
 5176200    223.89456    -386.7369    216009.12   -20703.679    1302.0724   -22005.751   -1019.1744    10259.119    78.156724    21.909012    25.676334 
 5176400    222.49826    -293.5352    216009.12   -20731.351    1293.9521   -22025.303    -622.5651    10258.189    78.157047    21.909896    25.681958 
 5176600    226.12945   -256.86576    216009.12   -20690.231    1315.0694     -22005.3   -430.95212    10258.704    78.155685    21.909982    25.685401 
 5176800    235.48768   -481.33907    216009.12    -20662.36    1369.4928   -22031.852   -1458.6796    10260.168     78.15525    21.910368    25.683716 
 5177000    229.19178     -312.729    216009.12   -20664.304    1332.8786   -21997.183   -743.38493    10258.485     78.15593    21.910684    25.682337 
 5177200    225.68113   -308.91239    216009.12   -20676.586    1312.4622   -21989.049    -726.2879    10259.366    78.156285    21.911397    25.680875 
 5177400    223.33274   -444.57465    216009.12   -20699.462     1298.805   -21998.267   -1321.7226    10259.752    78.156796    21.911466    25.686075 
 5177600    239.31016   -307.58863    216009.12   -20649.695    1391.7227   -22041.418   -698.68502    10257.713    78.156737    21.912225     25.67968 
 5177800    229.91216   -325.55025    216009.12   -20685.916    1337.0681   -22022.984   -767.50026     10258.63     78.15618    21.912278    25.684137 
 5178000    228.54243   -344.54452    216009.12   -20701.921    1329.1023   -22031.024   -809.38425    10258.425    78.155854    21.912007    25.682268 
 5178200    226.73943   -270.13551    216009.12   -20704.346    1318.6168   -22022.963   -534.11008    10258.379    78.155431    21.910978    25.680526 
 5178400     228.0799   -243.70786    216009.12    -20708.24    1326.4124   -22034.652   -411.56678    10258.309    78.155641    21.911361    25.689021 
 5178600    229.35115   -348.60693    216009.12   -20703.859    1333.8055   -22037.665   -862.61751    10258.971    78.155962    21.910939    25.684219 
 5178800    231.89475   -275.26075    216009.12   -20669.729    1348.5979   -22018.326   -532.46441    10258.713    78.155602    21.912582    25.683422 
 5179000    231.21138   -283.83913    216009.12   -20697.872    1344.6238   -22042.496   -605.64502    10259.037    78.154661    21.912452    25.678253 
 5179200    235.16871   -340.75971    216009.12   -20674.059    1367.6378   -22041.697   -812.29858    10260.073    78.154548     21.91224    25.679472 
 5179400     230.0509   -267.25776    216009.12   -20733.633    1337.8749   -22071.508   -526.88213    10259.209    78.153756    21.912365     25.68077 
 5179600    228.55278   -232.64053    216009.12   -20616.604    1329.1625   -21945.767   -369.45049    10258.024    78.153622    21.911023    25.685377 
 5179800    231.88202   -350.65991    216009.12   -20677.813    1348.5239   -22026.337   -842.76606     10258.52    78.154987    21.909706    25.678754 
 5180000    221.70457   -307.20893    216009.12    -20707.51    1289.3363   -21996.846   -693.54385     10257.72    78.155247    21.909315    25.680082 
 5180200    224.11479   -324.38785    216009.12   -20769.603    1303.3531   -22072.956   -794.41678     10258.22    78.155031    21.910714    25.683124 
 5180400    223.61343   -393.05702    216009.12    -20742.55    1300.4374   -22042.987   -1059.1625    10259.103    78.154592    21.911214    25.677406 
 5180600     224.4396    -361.5049    216009.12   -20689.804    1305.2421   -21995.046   -960.33925    10258.765    78.154144    21.910573    25.675706 
 5180800    228.50603   -357.53412    216009.12   -20669.578    1328.8906   -21998.469   -949.58998    10258.355    78.153569    21.911695    25.679094 
 5181000     220.1434   -442.41851    216009.12    -20706.89    1280.2573   -21987.147   -1296.7106    10259.467     78.15318    21.912102    25.680987 
 5181200    226.59826   -346.82476    216009.12   -20714.126    1317.7959   -22031.922   -858.51731    10258.555    78.151806    21.912441    25.679011 
 5181400    224.57431   -261.76651    216009.12   -20749.767    1306.0255   -22055.792   -487.64339    10258.215     78.15084    21.911501    25.678246 
 5181600    227.73276   -316.56541    216009.12   -20676.982    1324.3936   -22001.375   -702.69565    10260.503    78.150344    21.912508    25.683147 
 5181800    220.75597   -282.30891    216009.12   -20754.623    1283.8197   -22038.442   -587.78813    10258.615    78.149354    21.913665    25.678859 
 5182000    226.22799   -234.98375    216009.12   -20659.669    1315.6425   -21975.311   -391.58125    10257.965    78.148854    21.914371    25.681198 
 5182200    230.42589   -278.60141    216009.12   -20668.461    1340.0557   -22008.516   -554.00064    10261.269    78.148975    21.914736    25.684094 
 5182400    224.83163   -344.56902    216009.12   -20653.513    1307.5219   -21961.035   -893.35311    10260.126    78.147946    21.914742    25.681435 
 5182600    222.62192   -276.42472    216009.12   -20738.601    1294.6713   -22033.272   -609.09277    10258.256    78.147935    21.914009    25.683718 
 5182800    228.56916   -307.63886    216009.12   -20677.816    1329.2577   -22007.073   -646.01718    10260.033    78.147015     21.91449     25.68289 
 5183000    230.96779   -349.01955    216009.12   -20674.336    1343.2071   -22017.543    -856.8974    10257.865    78.146901    21.913912    25.677716 
 5183200    228.75311   -266.79987    216009.12    -20637.95    1330.3275   -21968.278   -519.51248    10258.841    78.146524    21.913032    25.675097 
 5183400    227.19701   -316.21967    216009.12   -20647.162    1321.2779    -21968.44   -723.49622    10258.924    78.145965    21.913358    25.679441 
 5183600    217.54772   -308.88738    216009.12   -20727.785    1265.1619   -21992.947   -699.84207    10259.893    78.145658    21.913114    25.680338 
 5183800    226.28817   -301.58594    216009.12   -20751.366    1315.9925   -22067.359   -710.49621    10258.691    78.145957     21.91281    25.680236 
 5184000    219.52408   -395.26166    216009.12   -20754.622    1276.6556   -22031.277   -1097.9452    10258.807    78.145778    21.913568    25.680786 
 5184200    227.93778    -394.6632    216009.12   -20641.175    1325.5859    -21966.76   -1081.4279    10258.025    78.144941    21.913537    25.676164 
 5184400    226.74557   -223.25756    216009.12       -20708    1318.6526   -22026.652   -323.27934    10257.537    78.144601    21.913674    25.677288 
 5184600    232.85079   -381.71582    216009.12   -20645.797    1354.1579   -21999.955   -1012.0506    10260.876    78.144803    21.913074    25.677526 
 5184800    224.38907   -321.67748    216009.12   -20697.481    1304.9482   -22002.429    -729.9633    10258.706    78.144523    21.912548    25.680354 
 5185000    226.41592    -243.2002    216009.12   -20709.726    1316.7355   -22026.461   -415.66051    10257.121    78.143005    21.912323    25.679481 
 5185200    224.97794   -343.84779    216009.12    -20686.95    1308.3728   -21995.323   -841.34031    10259.964     78.14265    21.913094    25.679337 
 5185400    224.73326   -356.40616    216009.12   -20728.241    1306.9498   -22035.191   -908.61327    10257.863     78.14324    21.913932    25.677077 
 5185600    224.16451   -240.36694    216009.12   -20689.794    1303.6422   -21993.436   -430.45187    10254.725    78.143519    21.913975      25.6806 
 5185800    226.39511   -343.76116    216009.12   -20694.474    1316.6144   -22011.088   -827.94892     10259.14    78.143029    21.913867    25.675707 
 5186000    230.92714   -330.56532    216009.12   -20664.062    1342.9707   -22007.033   -798.08695    10259.308    78.143827    21.913383    25.673703 
 5186200    226.11154   -218.17132    216009.12   -20673.195    1314.9653    -21988.16   -310.62486    10258.402    78.143178    21.912816    25.679931 
 5186400    224.82662     -312.795    216009.12   -20679.685    1307.4928   -21987.177   -686.63759    10259.251    78.142456    21.913049    25.681779 
 5186600    224.52459   -392.48428    216009.12   -20674.881    1305.7363   -21980.618   -1077.1423    10259.069    78.141883    21.912399    25.677415 
 5186800    225.17716   -302.20138    216009.12   -20668.896    1309.5314   -21978.427   -679.85121    10257.477    78.141213    21.912713    25.677141 
 5187000    229.40875   -342.51967    216009.12   -20693.633    1334.1404   -22027.774   -859.30914    10260.648    78.140984    21.912603    25.673876 
 5187200     228.3107   -375.09007    216009.12     -20666.3    1327.7546   -21994.055   -1048.4726    10261.611    78.141158    21.912697    25.669733 
 5187400    222.59457   -278.85105    216009.12   -20672.554    1294.5122   -21967.066    -583.4533    10257.831    78.141703    21.912607     25.67058 
 5187600    224.51657   -298.74155    216009.12   -20716.174    1305.6896   -22021.863   -630.37016    10259.402    78.140887    21.912462    25.670315 
 5187800    226.84201    -402.6844    216009.12    -20668.79    1319.2134   -21988.004   -1128.0848    10262.286    78.139996    21.912547    25.672696 
 5188000    230.53082    -343.0792    216009.12   -20693.842    1340.6659   -22034.508   -852.30217    10259.029    78.139715    21.912907    25.668474 
 5188200    231.76562   -359.67843    216009.12   -20640.252     1347.847   -21988.099   -913.03208    10259.525    78.139836    21.912893    25.670456 
 5188400    224.05701   -377.03786    216009.12   -20673.586    1303.0171   -21976.603   -998.17813    10259.481    78.138738    21.912678    25.676341 
 5188600    232.52187   -280.57548    216009.12     -20682.8     1352.245   -22035.045   -563.37446    10258.316    78.138495     21.91241     25.67206 
 5188800    226.74924   -313.43664    216009.12   -20730.528    1318.6739   -22049.202   -718.44446    10258.986    78.137925    21.913061    25.674072 
 5189000    223.05575    -421.9772    216009.12   -20719.679    1297.1942   -22016.873   -1218.1144    10257.769    78.136659    21.912575    25.678704 
 5189200    224.07187   -328.03149    216009.12   -20713.859    1303.1035   -22016.962    -812.1557    10259.705    78.135846     21.91202     25.67951 
 5189400    223.52997   -283.22118    216009.12   -20772.355     1299.952   -22072.308   -577.78645    10258.343    78.135158    21.911829    25.679234 
 5189600    224.74165   -361.90237    216009.12   -20720.692    1306.9986   -22027.691   -915.98443    10258.496    78.134665    21.911477    25.678291 
 5189800    235.27012   -328.57632    216009.12   -20677.135    1368.2276   -22045.363   -799.23722     10256.76    78.134779    21.911455    25.674934 
 5190000    228.59779   -333.84087    216009.12   -20699.205    1329.4243   -22028.629   -803.24659    10259.508    78.135605    21.910419    25.677871 
 5190200    223.74944   -351.37164    216009.12   -20685.781    1301.2284   -21987.009   -872.27546    10259.128    78.134514    21.909323     25.67257 
 5190400    227.06591   -280.91308    216009.12   -20701.199    1320.5155   -22021.714   -578.74593    10257.923    78.134428     21.90962    25.678274 
 5190600    233.79213   -304.03909    216009.12   -20633.107    1359.6323   -21992.739   -687.30333    10261.168    78.133902    21.909488    25.676094 
 5190800    223.23413   -389.90101    216009.12   -20705.622    1298.2316   -22003.854   -1038.3078    10259.916    78.134196     21.90904    25.680074 
 5191000    223.11249   -359.44635    216009.12   -20685.757    1297.5242   -21983.281   -924.97896    10259.744     78.13329    21.909704    25.678128 
 5191200    230.01011   -352.02272    216009.12   -20670.921    1337.6377   -22008.559   -874.31861    10258.977    78.132925    21.909685    25.677808 
 5191400    230.30766    -408.0859    216009.12   -20709.912    1339.3681    -22049.28    -1113.653     10261.06    78.132694    21.909239    25.675002 
 5191600    220.34562   -332.72115    216009.12   -20723.509    1281.4333   -22004.943   -810.17763     10260.29    78.132258    21.910129    25.676191 
 5191800    229.85737   -303.50978    216009.12   -20710.414    1336.7494   -22047.163   -657.96978    10260.194    78.132197     21.90965    25.679095 
 5192000    232.12697   -391.38643    216009.12   -20660.075    1349.9484   -22010.023   -1083.3323    10258.801    78.132715    21.908608    25.677754 
 5192200    230.73394   -345.02568    216009.12   -20630.441    1341.8472   -21972.288   -900.49172     10260.55    78.131889    21.908829    25.680472 
 5192400    224.83361   -303.88409    216009.12   -20698.373    1307.5335   -22005.907   -685.83908    10261.583    78.130853    21.909601    25.679672 
 5192600    232.47565   -337.86777    216009.12   -20688.443    1351.9762   -22040.419   -842.30628    10261.175    78.130961    21.910079    25.678132 
 5192800    228.03394   -281.03097    216009.12     -20693.5    1326.1452   -22019.645   -535.97954    10259.148    78.130546    21.909343    25.681814 
 5193000    226.85711   -276.28937    216009.12   -20665.836    1319.3012   -21985.137   -547.06474    10260.076    78.129923    21.910129    25.677763 
 5193200    227.33729   -325.27455    216009.12   -20737.931    1322.0937   -22060.024   -735.11315    10261.393    78.129876    21.909781     25.67586 
 5193400    230.69481   -300.21155    216009.12   -20656.442    1341.6196   -21998.062    -669.4957    10259.316    78.129008    21.909764    25.675378 
 5193600    227.73606   -272.74877    216009.12    -20684.32    1324.4128   -22008.733   -556.14854    10258.518    78.129411    21.908851    25.670359 
 5193800     227.7128   -344.09868    216009.12   -20675.599    1324.2776   -21999.877   -831.66447     10261.79    78.128946    21.908502    25.667909 
 5194000    224.25439   -335.52233    216009.12   -20662.368     1304.165   -21966.533   -842.48478    10257.616    78.129377    21.908554    25.674376 
 5194200     222.0166    -280.9861    216009.12   -20740.324     1291.151   -22031.475   -579.35152    10257.354    78.130119    21.909385    25.673229 
 5194400    225.40847   -378.20385    216009.12   -20717.337    1310.8766   -22028.214   -976.82898     10262.38    78.129703    21.909563     25.67288 
 5194600    225.80415    -261.5782    216009.12    -20675.46    1313.1777   -21988.637   -473.18024    10256.549    78.130155      21.9098    25.670702 
 5194800    232.23841   -280.60102    216009.12    -20637.65    1350.5965   -21988.247   -566.17873    10259.212    78.129918    21.910184    25.674722 
 5195000    226.26122   -365.29474    216009.12   -20697.559    1315.8358   -22013.395   -906.26171    10262.336    78.131272    21.910472    25.674408 
 5195200    232.29061   -296.51139    216009.12   -20622.325    1350.9001   -21973.225   -641.18247    10259.042    78.131686    21.909041    25.680601 
 5195400    223.33648   -299.78347    216009.12    -20685.51    1298.8268   -21984.337   -716.98021    10258.145    78.131839    21.909479    25.679539 
 5195600    222.60781    -365.7942    216009.12   -20643.838    1294.5891   -21938.427   -959.46747    10264.765    78.132416    21.909147     25.67511 
 5195800    221.05162   -365.96723    216009.12   -20715.336    1285.5391   -22000.875   -976.51724    10258.816    78.132486    21.909248    25.670743 
 5196000    235.78866   -248.08545    216009.12   -20626.956    1371.2432     -21998.2   -426.58277    10258.339    78.132219    21.908638    25.674765 
 5196200    228.64798   -332.10383    216009.12    -20657.38    1329.7161   -21987.096   -740.83021    10259.677    78.132751    21.908419    25.674358 
 5196400    225.46406    -341.4707    216009.12   -20704.338    1311.1999   -22015.538   -833.59328    10260.001    78.133583    21.907905    25.674416 
 5196600    224.92488   -239.57513    216009.12   -20666.587    1308.0642   -21974.651   -394.69215     10258.65    78.133956     21.90813    25.677328 
 5196800    224.11893   -384.21032    216009.12   -20682.197    1303.3772   -21985.575   -1045.4207    10259.916    78.134748    21.908749    25.673447 
 5197000    223.66806   -353.64989    216009.12   -20676.594    1300.7551   -21977.349    -920.0246    10260.673    78.134308    21.908525    25.672346 
 5197200     230.4821   -229.49701    216009.12   -20651.414    1340.3826   -21991.796   -375.72842     10258.71    78.134615    21.908232    25.673976 
 5197400    227.51769   -383.77779    216009.12   -20711.282    1323.1429   -22034.425   -1050.9633    10261.291    78.134639    21.907948    25.671382 
 5197600    220.86525   -388.42479    216009.12   -20713.885    1284.4552    -21998.34   -1047.8142    10260.108    78.135052    21.908729    25.676247 
 5197800    225.99178    -237.4671    216009.12   -20727.017    1314.2688   -22041.286   -374.51678      10257.8    78.134911    21.908722    25.676208 
 5198000    220.00309   -346.26801    216009.12   -20760.387    1279.4412   -22039.828   -836.48521     10259.97    78.134158    21.909331    25.672488 
 5198200    228.36377   -312.93004    216009.12   -20668.876    1328.0633   -21996.939   -723.30042    10260.748    78.133871    21.909283    25.675717 
 5198400    226.35084   -241.40294    216009.12   -20665.973     1316.357    -21982.33   -420.88019    10258.303    78.133584    21.908729    25.676942 
 5198600    226.83493   -378.54913    216009.12   -20681.761    1319.1722   -22000.933   -1043.3204    10263.193    78.134299    21.908411    25.672637 
 5198800    220.14515   -422.10478    216009.12   -20754.401    1280.2674   -22034.669   -1213.9802    10260.891     78.13488    21.907534    25.671444 
 5199000    223.30371   -307.13912    216009.12   -20713.152    1298.6362   -22011.788   -740.93862    10259.174    78.134525    21.907348    25.674855 
 5199200    230.78803   -364.35754    216009.12   -20615.345    1342.1617   -21957.507    -935.4469     10263.23    78.134907    21.906265    25.673078 
 5199400    221.86721   -334.12278    216009.12   -20724.224    1290.2822   -22014.506    -796.0751    10259.025    78.135637    21.906798    25.674007 
 5199600    220.02142   -319.06725    216009.12   -20716.465    1279.5479   -21996.013   -763.00691    10255.151    78.135137    21.906218    25.678154 
 5199800    222.10913   -413.86553    216009.12   -20679.551    1291.6891    -21971.24   -1179.8383    10260.824    78.135928     21.90519    25.676247 
 5200000    233.24693   -320.16591    216009.12   -20693.023    1356.4616   -22049.484   -738.16897    10257.753    78.135346    21.906416    25.672991 
Loop time of 7134.84 on 160 procs for 5200000 steps with 9248 atoms

Performance: 629.699 ns/day, 0.038 hours/ns, 728.819 timesteps/s
97.7% CPU use with 160 MPI tasks x no OpenMP threads

MPI task timing breakdown:
Section |  min time  |  avg time  |  max time  |%varavg| %total
---------------------------------------------------------------
Pair    | 0.24265    | 1462.2     | 5635.4     |5217.8 | 20.49
Neigh   | 0.31225    | 91.261     | 347.42     |1233.1 |  1.28
Comm    | 11.384     | 1751.9     | 5671.9     |4674.1 | 24.55
Output  | 89.446     | 89.52      | 91.369     |   1.6 |  1.25
Modify  | 207.02     | 3637.9     | 6938.5     |4828.3 | 50.99
Other   |            | 102        |            |       |  1.43

Nlocal:    57.8 ave 196 max 0 min
Histogram: 72 19 29 0 0 0 0 0 13 27
Nghost:    535.188 ave 912 max 0 min
Histogram: 20 4 0 8 8 33 35 15 23 14
Neighs:    0 ave 0 max 0 min
Histogram: 160 0 0 0 0 0 0 0 0 0
FullNghs:  5858.81 ave 23541 max 0 min
Histogram: 112 8 0 0 0 0 0 1 20 19

Total # of neighbors = 937410
Ave neighs/atom = 101.364
Neighbor list builds = 550595
Dangerous builds = 0
write_data 		${DIR}/data.${NAME}_run
write_data 		run_14/data.${NAME}_run
write_data 		run_14/data.ibeam_cooling_14_run
Total wall time: 1:59:09
