LAMMPS data file via write_data, version 7 Aug 2019, timestep = 5000000

4089 atoms
1 atom types

2.5454408795265948e-01 5.1165455912048365e+01 xlo xhi
2.5454408795265948e-01 5.1165455912048365e+01 ylo yhi
2.5454408795265948e-01 5.1165455912048365e+01 zlo zhi

Masses

1 18.15

Atoms # atomic

1609 1 3.5876555773654193e+00 2.0609902865007710e+00 1.7576084286017963e+00 0 1 0
3981 1 1.0656269520708156e+01 2.4904040917573331e+00 1.9770736914508966e+00 -1 3 0
3613 1 1.4568549839902436e+01 1.9080514591833246e+00 2.8949027013008015e+00 0 -1 0
63 1 1.8520271753538417e+01 3.1479227230864613e+00 1.6879528274411773e+00 -1 3 0
1838 1 1.7067617081241007e+01 1.1117338249879913e+00 2.3264900427422974e+00 0 4 -1
280 1 2.1603149248835347e+01 8.1130338724758877e-01 2.9207607592595686e+00 1 2 -1
2613 1 2.0860888134391395e+01 3.5341540193112850e+00 2.7964208751896380e+00 -2 -2 0
388 1 2.2396109138163012e+00 4.4355516317299015e+00 1.6793754320423118e+00 -1 1 -2
1530 1 5.8794541645122749e+00 6.0462413801238606e+00 2.9243083025917271e+00 -3 2 1
751 1 3.7909753643087298e+00 6.4617037339835042e+00 1.1055565183746983e+00 -1 1 1
1635 1 7.3254310893876937e+00 3.8324836865228598e+00 3.4414369555775357e+00 2 0 1
2198 1 2.2173124890513556e+01 5.5615270635933878e-01 1.4492251673186050e+01 1 -1 1
654 1 1.1803205790022382e+01 5.6214426297507041e+00 2.0689350075611919e+00 1 0 2
1402 1 2.5007844881739572e+01 3.3726306148430698e+00 3.7878514038513766e+00 -2 0 0
1813 1 1.7152683177384681e+01 5.2865252867026138e+00 1.2938238194451486e+00 1 0 1
2033 1 1.6313658211440032e+01 5.7698225328869244e+00 3.6845265606225950e+00 1 1 1
1770 1 2.1945150835335323e+01 5.7049827322561182e+00 1.8430978959235915e+00 1 1 -1
2389 1 2.3366290488008752e+00 8.6798116799643612e+00 1.3629613469708699e+00 1 -1 0
2711 1 7.3637255664369903e+00 8.2849037270050090e+00 2.7605436181913423e+00 0 0 1
1899 1 1.3420757425932182e+01 7.6211222511227188e+00 1.2930052823184783e+00 0 1 1
2778 1 1.5133015179258301e+01 8.0638011172811517e+00 3.2679868430608612e+00 3 1 0
2367 1 1.7221758610754041e+01 9.5133110327382493e+00 2.2412610758042861e+00 0 0 0
346 1 8.2555799972739781e+00 3.6911968517976308e+00 7.6351785229446434e-01 -1 -2 -1
3640 1 2.0490984810744475e+01 7.9761669589370179e+00 1.7667620896652561e+00 1 2 2
3157 1 2.5476151767381044e+01 1.5820978394688288e+01 1.6818469607352807e+01 3 0 1
1009 1 1.7173506832327714e+01 2.4891134948114992e+01 1.5423766560621456e+01 0 -1 3
3130 1 6.2234561730221811e+00 1.0937439975526035e+01 2.5447498793920444e+00 -1 3 -3
2441 1 1.3791335855425707e+01 1.1747764148249118e+01 2.5647012703268823e-01 2 -3 0
1107 1 7.8767550299873301e+00 1.3090384404825597e+01 1.8950600076041531e+00 0 2 0
2470 1 1.1953699103937064e+01 9.8150886339094203e+00 1.0371372885261632e+00 -2 2 -1
3453 1 8.3096252947867788e-01 4.7616779251433643e+00 1.5741217009318545e+01 -1 0 -1
2863 1 2.0515777936670734e+01 1.2497622723377249e+01 1.1772512497301379e+00 0 0 2
3368 1 2.1977081363545889e+01 1.0277623252397081e+01 1.2650327861327693e+00 1 1 -1
3294 1 2.4212376994769354e+01 1.0373586130923469e+01 2.9986167846227398e+00 1 -1 -1
3668 1 4.3587259377701102e+00 2.2812248592396415e+01 1.4707015185825684e+01 1 -1 -2
3853 1 1.6451630236561552e+00 1.3632612831350178e+01 3.0415134410733513e+00 -1 0 1
1601 1 6.2045625874277901e+00 1.5531018160824125e+01 1.7572032244314748e+00 0 0 0
2598 1 2.5137022107879588e+01 3.2148163172774371e+00 1.2844573999558776e+01 2 1 -1
611 1 1.1528827511379854e+01 1.5142945426009524e+01 3.0346460537014406e+00 0 -2 0
3050 1 1.3988382585076891e+01 1.3984405100330257e+01 2.1980353404551307e+00 2 0 1
1386 1 1.5896539873283533e+01 1.5828950762591413e+01 1.4236773092962165e+00 0 -1 1
2383 1 1.7628594446481902e+01 1.5739104905068022e+01 3.2818882968722924e+00 0 1 -1
3868 1 1.9407516292170349e+01 1.3188035843592582e+01 3.3648363274956110e+00 1 0 1
3443 1 6.2868370078252376e+00 2.4453105085966858e+01 1.3935991895761488e+01 0 2 2
4 1 2.4254206580172148e+01 1.4649046846619823e+01 2.1481716495068954e+00 0 -1 2
2116 1 1.8736004418165606e+00 1.7919273589718024e+01 2.1126577076090971e+00 2 -1 2
2006 1 1.2932256452150499e+01 2.5361632724711455e+01 3.0442756517481446e+00 -1 2 0
616 1 8.5326487273910541e+00 1.7089387164138106e+01 7.4496391983449228e-01 1 -1 0
3513 1 8.6730579999092061e+00 1.9213569117717441e+01 2.9603401236435740e+00 0 1 -1
2917 1 1.4436711430872409e+01 1.8290983400269788e+01 1.2995640157792343e+00 1 -3 -1
788 1 1.9568772351141888e+01 1.7409232752055541e+01 2.6600256501284734e+00 0 0 1
3084 1 3.0183266547161010e+00 2.7237850054802465e-01 6.7771439954369823e+00 -2 0 0
2030 1 7.1629199243786124e-01 2.0478804767396909e+01 1.9347671027904381e+00 1 3 2
1238 1 2.7703849637725306e+00 2.2293099323429153e+01 1.4360642833196513e+00 -1 3 1
1969 1 5.0978545731305953e+00 2.1313258759467750e+01 1.1070779394742076e+00 -1 -1 -1
1338 1 6.0748307768477980e+00 2.0258473184689407e+01 3.2987697656707224e+00 1 -2 1
2803 1 1.0299216651015424e+01 2.1092824151077522e+01 2.0159165683639788e+00 1 -1 1
633 1 1.6369506795889549e+01 1.9952515211428317e+01 8.6320633862131935e-01 0 2 0
3970 1 1.5233994473683499e+01 2.2352479313323681e+01 6.8250858716822904e-01 -1 -1 2
430 1 1.8442996271150484e+01 2.0072686688663364e+01 2.6632586663814095e+00 1 1 2
2996 1 2.0309036093497582e+01 2.2181219542415064e+01 1.6931490470359096e+00 2 0 1
2447 1 2.2299997205759706e+01 2.2035262719497485e+01 3.5850427862892436e+00 -1 0 0
363 1 2.4019452411304663e+01 1.9073369101518473e+01 1.1420652213741112e+00 -1 0 0
1795 1 2.3242832274396445e+01 1.9528885067592061e+01 3.6990197156553655e+00 0 1 0
3187 1 8.9241395353564226e+00 2.3586704515901257e+01 2.0406058992244129e+00 1 -1 0
3041 1 1.0849155936851794e+01 2.5490759689437123e+01 1.1601674536596362e+00 -1 -1 0
3790 1 2.5296963361605375e+01 2.0929319401863058e+01 5.7606496490529633e+00 -1 0 3
2484 1 1.4159031017983512e+01 2.3089122749095328e+01 2.9332441375468949e+00 1 -1 2
3541 1 1.8926185528180433e+01 2.4469659023082965e+01 1.4899562687882344e+00 0 1 2
1207 1 2.4057603194695144e+01 2.4089858227117315e+01 2.7397257103095072e+00 -1 -1 -1
3973 1 2.4324960162079631e+01 5.7226314861307592e-01 1.6261294631475621e+01 1 -1 -1
3270 1 1.2181469095219729e+01 2.5328079266303007e+01 1.4454173887659961e+01 -1 -1 -1
2607 1 2.0879107807860926e+01 2.9147266399878191e-01 1.0599715920353699e+01 0 2 3
3840 1 5.6071247751128359e+00 1.8902198775377423e+00 3.6693314715014940e+00 0 2 1
1042 1 4.6739947902401120e+00 2.2800228840974586e+00 6.3078451659901518e+00 0 0 1
3707 1 1.0483050893884439e+01 1.2702165869522435e+00 4.7081952225988779e+00 1 0 1
147 1 1.5236911273693986e+01 3.6451642487550227e+00 4.6558777739272870e+00 2 1 0
3932 1 1.7291976471149663e+01 2.8948937529114875e+00 6.2169494091419351e+00 1 1 1
2817 1 2.3607888973831297e+01 1.1132989219211693e+00 4.6229568929274141e+00 3 2 2
4076 1 2.2552690495040157e+01 1.8780992520454642e+00 7.0602890273786256e+00 2 0 1
2199 1 9.3952588328260811e-01 5.2229369003345578e+00 4.2789532354967399e+00 1 1 1
4043 1 3.1619978552878116e+00 4.8087672413129567e+00 5.8999142124467809e+00 3 1 0
668 1 9.4168578063651065e+00 3.7280345909369719e+00 4.9003201372661609e+00 2 0 1
141 1 1.2751399734101065e+01 6.3901387753634138e+00 6.1020453332140336e+00 0 2 1
1191 1 1.0761938659230607e+01 6.0315555965660899e+00 4.5135980616800184e+00 1 1 1
1321 1 1.3420017087211029e+01 4.1673717284315570e+00 6.5955740094351158e+00 -1 -3 -3
3051 1 1.8196735453683960e+01 6.4085043290178429e+00 5.1109019695177800e+00 0 0 -1
657 1 1.9675331911664326e+01 4.1420364737914399e+00 5.2397252400063374e+00 -4 0 1
3718 1 3.8883730809659423e-01 2.0874502540244713e+01 1.3516930493508818e+01 2 1 1
386 1 2.3805515426361985e+01 5.7799982536705432e+00 3.4716524413802694e+00 3 0 2
70 1 2.2784726956058606e+01 6.7033162692071686e+00 6.0929921955557873e+00 1 -1 2
6 1 1.7251092084202033e+00 9.3406344390250329e+00 3.6774314261443592e+00 0 -1 0
3507 1 1.5594239437208161e+01 2.2921594513086180e+01 1.6390464500577615e+01 0 3 1
1925 1 3.6142479820011575e+00 9.2448980583323266e+00 5.4294855150232726e+00 -1 1 0
2639 1 4.8569287919490174e+00 6.8400980254403416e+00 5.2988806029685973e+00 1 1 -2
1296 1 9.3338535229952662e+00 8.3915891620562935e+00 4.3118127604444290e+00 1 -1 -1
524 1 8.2891600717074585e+00 8.8763829702349213e+00 6.6483321511080824e+00 2 0 1
2129 1 1.4168030961546403e+01 8.5541809678539558e+00 5.7305857447868132e+00 1 -1 -1
2073 1 1.9726579591866006e+01 8.3026285592460436e+00 4.2782464850031490e+00 0 1 0
1163 1 2.1650906789377281e+01 9.0366947086296516e+00 6.2612146215045286e+00 -1 4 -1
833 1 5.0353805897974198e+00 1.1197157113424659e+01 4.7856855211853553e+00 -1 1 0
587 1 6.9193179652842076e+00 1.1513831428650972e+01 6.7277531071746104e+00 -2 0 -1
3568 1 1.0019546890367465e+01 1.3065881505878417e+01 3.8541516058613103e+00 3 1 0
3059 1 1.0758905477167540e+01 1.0400314334125040e+01 3.5641363634817638e+00 0 1 -1
34 1 1.3175933313630384e+01 1.0668517992061071e+01 5.1699395326344151e+00 0 2 0
1231 1 1.5080965181031290e+01 1.2590040869808520e+01 4.5298768225812225e+00 0 0 1
2944 1 1.7481552689949954e+01 1.1403974849546268e+01 4.1526261472775357e+00 0 0 1
2758 1 1.7972492592891228e+01 1.0027274372506522e+01 6.1318141790287859e+00 1 -1 4
2782 1 2.3067414794634669e+01 1.1093342174748733e+01 5.3704484984074785e+00 2 0 1
2969 1 5.4582960256424053e+00 1.5882329798862324e+01 4.4462796674257090e+00 3 0 1
2364 1 3.9039116887069465e+00 1.3599502538572633e+01 4.5145007168449158e+00 1 0 0
3967 1 8.7827892676905641e+00 1.3440370409091555e+01 6.0609571412483350e+00 2 -1 1
273 1 7.6078724000100939e+00 1.5950305477801317e+01 5.8914516084729645e+00 1 2 0
3722 1 1.5106053677377981e+01 1.4376730703966263e+01 6.5064596340007288e+00 1 0 1
2209 1 1.7107914330346102e+01 1.6319146806412128e+01 6.0675002662275750e+00 0 -2 1
483 1 2.1377271092002321e+01 1.3717197502855385e+01 5.0335161162439821e+00 1 -3 2
227 1 1.0772362355426363e+01 1.5913297340869237e+01 7.0700390686993608e-01 0 -1 3
1236 1 2.3364179902311093e+01 1.5231759025512137e+01 4.4810032010578711e+00 0 2 1
3637 1 2.9989446157378943e+00 1.8747806343215981e+01 6.5931193655941893e+00 2 2 -1
301 1 4.2589648086818306e+00 1.8292440402703679e+01 4.0988825308024168e+00 0 -2 1
1230 1 9.4192174665974875e+00 1.7917821981388265e+01 5.0766800582148308e+00 -1 -1 0
1387 1 1.1829400658909790e+01 1.7187851719858095e+01 4.9048898329020023e+00 1 2 1
2585 1 1.3607770567093917e+01 1.8918573043475298e+01 3.7870508359600628e+00 0 -2 1
1703 1 1.5777982462621706e+01 1.8698391813291504e+01 5.3054860699932833e+00 0 1 0
2342 1 2.1810771591676183e+01 1.7470829883037204e+01 4.4173741184095006e+00 -2 1 0
2710 1 2.0872503014567027e+01 1.8396883937081334e+01 6.7004672132035470e+00 0 -1 -1
1455 1 1.8495531306558493e+00 2.1305142786196310e+01 6.5042269105408286e+00 -1 -2 1
3557 1 6.2580040670930490e+00 2.2042233619924588e+01 5.4088492773809387e+00 -1 1 0
1600 1 9.4677855343592672e+00 1.9841633221369651e+01 6.8371681027850935e+00 0 1 2
1984 1 1.2421431918941915e+01 2.1363650227319994e+01 3.9095756536652084e+00 0 2 1
2974 1 1.1458636875335303e+01 2.1575835320095724e+01 6.4521160490759968e+00 2 0 3
4057 1 1.7421618479114489e+01 2.0875275695256601e+01 5.0326064399549804e+00 1 -3 0
277 1 1.9482249703976368e+01 2.0941996360587492e+01 6.7307715253441875e+00 -2 0 2
2127 1 2.5012129394606767e+01 2.4828389236058566e+01 7.0147334017058851e+00 -2 0 0
2115 1 1.8791355689243712e+01 2.5500660530359617e+01 8.0110874957965788e+00 0 1 0
2378 1 2.9592878893414176e+00 2.4172733366392265e+01 3.2627502927774206e+00 0 2 -1
3544 1 3.6399333892914001e+00 2.3265687628603413e+01 5.5684853977941096e+00 -1 -3 0
1379 1 8.2619530964017720e+00 2.3814755709045794e+01 4.7319401580628222e+00 1 0 -2
2873 1 1.0190332007130294e+01 2.3955769501005033e+01 6.4937250562489028e+00 -1 -1 2
3216 1 1.6092215503869060e+01 2.3212935840059984e+01 4.9102653093422202e+00 2 1 1
1869 1 1.7860469084550559e+01 2.5086053902713470e+01 3.9096270607550978e+00 -1 3 2
3734 1 2.1333532035479642e+01 2.2403984839555044e+01 5.9124319845102749e+00 -2 2 0
3046 1 1.9949050038434361e+01 2.4857729835218844e+01 5.5442726876088777e+00 2 -1 0
3851 1 2.5264790145781259e+01 7.8724133028086953e+00 2.7874373164791137e+00 0 1 -1
4049 1 1.8839186527902925e+00 9.1295768425765256e-01 9.2820007126718540e+00 1 0 0
742 1 7.0331337214050582e-01 3.4907675617215648e+00 9.4748490064597544e+00 0 0 -1
1947 1 4.0980248175342171e-01 1.2701663120412563e+01 1.0204006967748207e+01 0 -1 0
403 1 6.6947970135961121e+00 2.4855061432962677e+00 8.0486641087560855e+00 0 0 4
321 1 1.1794872523603097e+01 2.0339792442073628e+00 7.2383009573376560e+00 0 2 -1
2854 1 1.0897460158166353e+01 2.6766377121470057e+00 9.7506514655919450e+00 2 0 0
3354 1 1.7098674763368287e+01 1.8079949473924868e+00 9.1513015862940037e+00 -1 1 1
1872 1 2.4860535791796082e+01 1.5934448531227490e+00 8.4647671275880985e+00 -2 2 0
3576 1 2.2578416387038471e+00 5.4456410802737532e+00 8.2823373811288334e+00 0 0 -1
440 1 4.1658430248411999e+00 5.4326057958557650e+00 1.0263120981826361e+01 -1 0 1
2382 1 8.2182453301434357e+00 4.4306044486875944e+00 7.3384870266178241e+00 0 3 -1
2045 1 1.0039615626430523e+01 5.1368136533698587e+00 9.3481852249718642e+00 0 0 1
1540 1 1.5799620879723340e+01 4.2409863341692180e+00 8.4324584094001693e+00 -1 0 2
606 1 1.7132653248777714e+01 6.3965533064476654e+00 7.6302651841593478e+00 2 3 2
2181 1 2.1557225771250685e+01 4.3115190501234002e+00 7.0476254564565552e+00 -1 2 0
2223 1 2.0499039705901303e+01 4.7160694816988782e+00 9.6187320317510991e+00 1 1 0
108 1 9.1172357111913960e-01 8.0320795084174375e+00 8.5672754946656475e+00 1 2 -1
1564 1 2.7533828637297266e+00 9.9064869780782221e+00 8.0170859206994862e+00 -1 1 4
3284 1 5.8052509411592110e+00 7.6124100305071343e+00 9.6755530016460636e+00 1 -1 1
603 1 6.8607425545347844e+00 6.9736141978529593e+00 7.0294057594726889e+00 -1 -1 5
874 1 1.1888928429456630e+01 7.0125102493290585e+00 8.4607289119358384e+00 3 1 0
2640 1 1.0507197963166732e+01 9.2018295349719548e+00 8.5560771221707927e+00 0 1 1
2665 1 1.5026789228725050e+01 9.2371586130987371e+00 1.0078078135018259e+01 1 1 -1
4046 1 1.6037385492894622e+01 8.7609838662319230e+00 7.5645460322378177e+00 1 0 1
3968 1 1.9220449568285435e+01 7.0237504661105552e+00 9.3762506267970043e+00 0 0 1
2935 1 2.0355012240625136e+01 9.7957130018296823e+00 8.5347162540010633e+00 1 -1 2
1232 1 2.4571025521643534e+01 6.6998946179772476e+00 8.1013318559598417e+00 0 0 2
2696 1 1.5103625251395338e+00 1.2272708061225627e+01 7.8248259272744232e+00 2 0 -2
2957 1 4.6922401941006608e+00 9.9995583423829828e+00 9.8883270556979159e+00 1 0 2
232 1 5.9696521384369765e+00 1.2305314776352445e+01 8.9646587145856351e+00 0 1 0
1974 1 1.1930147792220012e+01 1.1321048696859600e+01 7.4536556525123085e+00 1 -2 1
3268 1 1.3733561475333955e+01 1.1713841212665660e+01 9.4218004115811258e+00 3 -2 -1
383 1 1.8584389817431607e+01 1.1910503157313551e+01 8.8917549170967227e+00 -2 0 1
3212 1 2.5305703695699044e+01 1.1292284638281567e+01 6.8853514918267633e+00 -1 0 1
1138 1 2.4168439163646653e+01 1.1666246371553207e+01 9.3638887309554644e+00 -2 -1 0
1134 1 3.0810929931607376e+00 1.4191316185307347e+01 6.9759480599569637e+00 1 3 2
1723 1 4.9221354062715594e+00 1.4791143021383615e+01 8.7892378999429415e+00 1 1 2
1684 1 1.2534168051806326e+01 1.5908603062022312e+01 7.1480013848072659e+00 3 0 1
1205 1 1.0816348537675962e+01 1.3814647564213208e+01 7.5059301834857619e+00 0 -1 -1
624 1 1.5985721255942686e+01 1.3297877858452157e+01 8.8823665675810197e+00 -1 -3 0
2633 1 1.8985788233775139e+01 1.6686189980736277e+01 7.7304676190679773e+00 0 0 -1
3401 1 2.0249481474365904e+01 1.4266374928372494e+01 7.7943351739340301e+00 0 1 2
2222 1 2.2452610000334673e+01 1.3817494702108542e+01 9.3453764365675518e+00 -1 -1 -2
2288 1 2.4283921305585608e+01 1.5778617956363535e+01 8.5438045868005545e+00 3 -2 0
1458 1 1.5857681436839357e+00 1.6529764265964374e+01 7.1232445743143176e+00 1 1 2
2692 1 7.1458986472074781e-01 1.7409490017831057e+01 9.7296811302244084e+00 0 2 0
1109 1 5.2612184617306506e+00 1.8824810710700220e+01 8.1556749566869851e+00 -1 1 0
3150 1 6.7001341979169986e+00 1.6657121879280332e+01 8.0901541438347149e+00 0 0 0
3776 1 8.5599813898357997e+00 1.6695264980106177e+01 9.9032039023540257e+00 1 -1 1
3705 1 1.0219085612549124e+01 1.8610379122615495e+01 8.9925340341459972e+00 3 0 3
3329 1 1.2722295453727337e+01 1.7757783068802389e+01 8.7892573582684523e+00 1 0 0
3338 1 1.8066115942081510e+01 1.7096863940504306e+01 1.0060994644137242e+01 -1 1 0
4023 1 2.2682585720756602e+01 1.8231117440841810e+01 8.5836601797216368e+00 -1 1 0
2472 1 1.0259878971852130e+00 2.1925528258583473e+01 8.8985568850472330e+00 2 -2 -2
3523 1 7.0254201214606855e+00 2.0894450971014745e+01 7.6241059163466307e+00 0 2 -1
1062 1 1.4653572284324365e+01 1.9327739418744265e+01 7.8167309592173924e+00 -1 1 0
1932 1 1.3334828597670578e+01 2.1739294320768241e+01 8.1597502479260573e+00 0 0 3
927 1 1.6613529807446646e+01 1.9427579462405919e+01 9.6803336528934683e+00 0 -1 -1
3775 1 1.8432575773815991e+01 2.1349513089978654e+01 9.1289194112847483e+00 1 1 2
2295 1 2.4602778101633039e+01 2.0126352835744065e+01 8.8618926059106418e+00 2 -1 3
1858 1 3.8472681930769124e+00 2.5074839084396103e+01 7.5998222602930019e+00 -1 0 0
1358 1 4.7672863181248966e+00 2.3934935205182100e+01 9.8970840111022831e+00 -1 1 0
366 1 7.1797718317121051e+00 2.2946932305429598e+01 9.4402769542127380e+00 -1 1 0
2165 1 9.2412220355038528e+00 2.4662596524028157e+01 8.8332362831523614e+00 2 0 0
1156 1 1.1289969859817591e+01 2.4620762168851982e+01 1.0518594033340078e+01 1 0 -1
2559 1 1.5157513829287911e+01 2.3620407479078185e+01 7.5602334484070166e+00 0 1 0
1141 1 1.7261540329686579e+01 2.3785337560109010e+01 9.2812348506982723e+00 -1 -1 -2
2800 1 2.2846046939330581e+01 1.1088155925361260e+01 1.7180625980078506e+01 0 2 -1
226 1 2.2320666264650725e+01 2.3511277284601380e+01 1.0144835100623036e+01 -1 0 0
1892 1 2.3467993954279930e+01 2.2859700202379887e+01 7.7943332159665122e+00 -1 0 1
1890 1 3.0733213226558167e+00 1.6328663927247529e+00 1.3550878382919404e+01 -2 2 2
2328 1 4.0193055259304380e+00 9.3288931513387530e-01 1.1079132438517902e+01 1 1 0
1907 1 5.5549819406987311e+00 3.1546903830119417e+00 1.0422327741591294e+01 0 2 1
2305 1 8.7741304272209391e+00 6.3809290380562589e-01 1.2823401196860198e+01 0 -1 0
2042 1 7.5237612666613956e+00 3.2565284024579180e+00 1.2434721178837769e+01 0 1 4
3218 1 1.8433065066022198e+01 6.2585400751675673e+00 1.6874166155829350e+01 0 2 -1
2393 1 1.3173130648599740e+01 2.9210822407256978e+00 1.1582477656808361e+01 1 2 0
2319 1 1.9453399654055247e+01 2.4149816052986046e+00 1.0649431587044717e+01 0 -1 2
2705 1 1.8653940025694808e+01 2.8334155166803390e+00 1.3129406325939108e+01 0 -2 0
931 1 1.6903900569490173e+01 9.8047192353357149e-01 1.3582326312257965e+01 0 0 1
3920 1 8.7587190215191164e+00 2.3508902202118811e+01 1.3489985390575930e+01 0 0 2
3433 1 2.4979142810404671e+01 1.0556211267030438e+00 1.1079330482488928e+01 2 1 1
2747 1 1.9949092335660252e+00 4.0353920887612755e+00 1.3114482680208756e+01 -1 -1 -2
1072 1 3.4107923993409321e+00 6.5283498342120492e+00 1.2703634594725697e+01 -2 0 -1
3353 1 8.9229124485091109e+00 5.3090120036880109e+00 1.1876030355892738e+01 -1 -1 0
994 1 1.5078392350128530e+01 4.8722179507849592e+00 1.1138580879885657e+01 -1 2 3
3128 1 1.7070535921470384e+01 4.9905307349213981e+00 1.3141795901523107e+01 0 0 1
1257 1 2.1685020808599308e+01 5.9915513970332128e+00 1.1926415664761519e+01 -1 0 1
37 1 1.7850828400120946e+01 1.4296009606055268e+01 1.6968176954394714e+01 0 0 -1
948 1 1.8824586404652945e+00 8.6973162496797478e+00 1.2641298980945686e+01 1 -2 1
3345 1 7.8471174686669212e+00 7.9632661545579131e+00 1.1456663208535277e+01 0 0 0
1539 1 9.5782026981936372e+00 9.9241133199141878e+00 1.0843815589408274e+01 0 2 0
41 1 1.2638398964560732e+01 7.4510198884043479e+00 1.2941942513909074e+01 1 1 -1
3758 1 1.3681947183530784e+01 7.1319365262785768e+00 1.0708105720790277e+01 0 3 0
1757 1 1.8235476680095015e+01 7.2437739795948541e+00 1.1991196150509095e+01 -2 3 1
17 1 1.7030942828287493e+01 9.5985138476320451e+00 1.2028687412762180e+01 0 1 -1
1790 1 2.0485232336058296e+01 7.8069917344850266e+00 1.3570332831203213e+01 -1 0 2
2179 1 2.3617236286726733e+01 7.0802031386173123e+00 1.0677790561579727e+01 0 1 -3
1435 1 3.7520362586985518e+00 1.0871650652349063e+01 1.2087975802971034e+01 0 1 2
503 1 7.9938319726388682e+00 1.2264088267141018e+01 1.1007706059618048e+01 0 1 1
3529 1 7.2788243830173496e+00 1.2754783823586950e+01 1.3284897788001121e+01 1 -1 -1
452 1 1.1496155280410273e+01 1.0413350073248040e+01 1.2904875509843817e+01 0 1 1
1511 1 1.2703013982235891e+01 1.2492915330844999e+01 1.2187088659092229e+01 -1 1 0
124 1 1.8371361868113826e+01 1.1831841638256936e+01 1.1472018081535206e+01 1 -1 0
982 1 2.1837392407704726e+01 1.0043043697776159e+01 1.2768914487530040e+01 -1 1 3
1366 1 2.0397263152742848e+01 1.2444077089676483e+01 1.2778158181067221e+01 0 2 1
1926 1 2.2511677137261934e+01 9.6033007057294526e+00 1.0284748961854193e+01 1 0 -1
2522 1 2.1968066910465108e+01 1.9958213242827245e+01 1.4371938110557283e+01 1 1 -1
1553 1 2.4716425426763391e+00 1.3148492630802869e+01 1.2008487380313625e+01 0 2 0
2105 1 3.9990391446871656e+00 1.5131727238920938e+01 1.1236308737248178e+01 -1 1 2
2043 1 6.1111292378328486e+00 1.5314894724726479e+01 1.3031620752983049e+01 -1 2 1
395 1 9.6726705346376640e+00 1.4225205156517523e+01 1.0027723842994607e+01 0 0 1
1275 1 1.1626839630840289e+01 1.5010016863989341e+01 1.1815264813723276e+01 0 -2 -1
3923 1 1.3508327115002135e+01 1.6755506791721846e+01 1.1035451329270186e+01 0 1 0
2908 1 1.5890073231203067e+01 1.5388323521654982e+01 1.0433377015525757e+01 0 -1 1
3665 1 1.6367177591327852e+01 1.3540987869842262e+01 1.2632185183853053e+01 0 1 -1
1335 1 2.1582497017061325e+01 1.4554811160790935e+01 1.1676583650228853e+01 0 3 1
783 1 2.3792327531083302e+01 1.5005190773471003e+01 1.3732008503873692e+01 1 0 -1
571 1 2.9667636008494598e+00 1.7752255707553459e+01 1.1244279773272881e+01 0 0 -1
65 1 1.7055948036965831e+00 1.8689437465348512e+01 1.3381225421927962e+01 -1 2 -2
3159 1 7.7245965609265701e+00 1.7316231031487913e+01 1.2436570025865176e+01 0 2 1
204 1 1.1367039775332735e+01 1.9288186239524975e+01 1.3590742937299979e+01 0 -1 1
1731 1 1.3695100178143889e+01 1.8382650722996928e+01 1.3038462045601399e+01 1 3 0
2603 1 2.1700923672651133e+01 1.8731851507859691e+01 1.0941934020863822e+01 2 0 3
3921 1 1.9917010470200815e+01 1.6752615034595276e+01 1.1563421754936325e+01 0 -1 0
625 1 2.5286017807395051e+01 1.7003608790907339e+01 1.2769295132662082e+01 0 0 1
495 1 2.3972595707109903e+01 1.9393889460357403e+01 1.2594193421878302e+01 -1 0 -2
1520 1 2.2174809166626086e+00 2.2825399707345127e+01 1.3250942582450870e+01 0 1 0
2840 1 2.9862506338712915e+00 2.2149226737607194e+01 1.0643843731605479e+01 1 -1 1
1889 1 1.8331153738924989e+01 7.4421845715363739e+00 2.7794169891205256e-01 0 -1 -1
1628 1 4.3989932061156880e+00 1.9757487471824955e+01 1.0380254396238827e+01 -2 0 0
1059 1 6.6876942158938988e+00 1.9931090368245506e+01 1.2211030806959705e+01 -4 0 -1
1627 1 8.4638939451999988e+00 2.1782740006206129e+01 1.1664455287495066e+01 0 0 0
3499 1 1.2496152782477544e+01 2.2337678030902378e+01 1.0762643572449788e+01 2 2 -1
891 1 1.0643365925253537e+01 2.0409986909486424e+01 1.1314443960959794e+01 1 0 0
3873 1 1.5676156115475630e+01 1.9914352347476580e+01 1.2222491483003786e+01 -2 3 -1
678 1 1.4800558666624566e+01 2.2393094232040447e+01 1.2309461127947307e+01 0 2 1
629 1 1.9877480678034654e+01 2.1678739187845306e+01 1.3556062461081419e+01 0 1 0
1074 1 2.0714080541324016e+01 2.1320059566610226e+01 1.0901742347799628e+01 -3 0 0
2039 1 1.3552134804521181e+01 2.2860098349575800e+01 1.4738310001281267e+01 0 -1 0
3169 1 7.2366522594278770e-01 2.4978548721156209e+01 1.2870656476483795e+01 2 1 0
3639 1 1.9067038325007584e+01 1.8401230018618762e+01 1.7172081528985984e+01 1 2 2
876 1 1.0305937261172266e+01 2.5542441630809684e+01 1.2786752986754802e+01 1 1 1
2384 1 1.6744417937294994e+01 2.4289895717571124e+01 1.1641536180974615e+01 0 1 0
3342 1 1.8854010779150382e+01 2.4252475606134592e+01 1.3083173978688150e+01 -1 1 0
2845 1 2.4180884154061577e+01 2.4050232863343091e+01 1.2115957971204612e+01 -1 2 0
1682 1 5.2003711943590645e+00 1.7807412459507996e+00 1.5816229578191665e+01 -2 0 1
306 1 1.6860053865725003e+01 2.0131314067536344e+01 1.6444982899116066e+01 -1 0 2
1456 1 1.2213635066519657e+01 3.1712194674902725e+00 1.4239859500303007e+01 -1 0 1
582 1 1.0418222912452045e+01 1.2214587662884246e+00 1.4747111799859406e+01 2 1 -1
2482 1 1.5637290296292706e+01 1.3261462185211257e+00 1.6151641718234995e+01 0 0 0
2838 1 1.4253035286349274e+01 3.5671337677135599e+00 1.5954557512416551e+01 1 2 -3
2329 1 9.4630932906476914e+00 7.1081003603874859e-01 1.0068505954825822e+01 1 -1 1
2491 1 2.0767635170767022e+01 2.7812608657555757e+00 1.4825790424224554e+01 -2 0 0
1693 1 1.3378464325594358e+01 3.0073254884835894e+00 5.5275994593464339e-01 0 1 1
4068 1 4.1367703603629389e+00 1.0752920534463474e+01 6.8456741572556756e-01 2 0 0
4002 1 5.2987387138654372e+00 6.3882922460125080e+00 1.4779362471177565e+01 0 -1 1
3193 1 6.5485378487026278e+00 4.0363441918854130e+00 1.4974388675008337e+01 0 0 0
2750 1 8.0163999078015080e-01 5.5163758677429375e-01 5.1464589903838771e+00 2 0 -1
3311 1 1.0856427159361001e+01 5.5879558279310109e+00 1.3765867427925388e+01 -3 2 0
641 1 1.0020963851893660e+01 6.1348326920766194e+00 1.6051244358087629e+01 0 -1 -3
523 1 1.6112448889983398e+01 5.6903108266680809e+00 1.5457968137828574e+01 -2 0 -1
1027 1 8.6332585695113142e+00 1.8099259152055485e+01 1.6707887544895865e+01 -1 1 -1
2741 1 2.2819189122868035e+01 4.4433197246887577e+00 1.3753055668967624e+01 3 0 2
976 1 1.1348778947310065e+00 9.2527548445158487e+00 1.5063079574193488e+01 2 -1 1
3580 1 2.5310358118594273e+01 2.1175389350745153e+01 1.1318474579302775e+01 0 0 -1
2960 1 1.1964829142153274e+01 2.0867565340907845e+01 1.5505092233096196e+01 0 0 0
2480 1 6.8170969991951136e+00 8.4894501049495492e+00 1.3887510346307941e+01 2 0 3
1057 1 8.8057355607025869e+00 8.4769171044266471e+00 1.6018698581031110e+01 3 -1 2
3844 1 1.4778764157154896e+01 7.9112446504013398e+00 1.4935933604164722e+01 2 0 0
2421 1 1.4705454618273608e+01 8.0247471133222059e-01 1.1988460041479460e+01 1 2 1
3385 1 1.6149313097171948e+01 1.0278642038915589e+01 1.4326478633324578e+01 1 2 -1
1618 1 1.8330901314592744e+01 1.0542993768437743e+01 1.5848251879972324e+01 -1 -1 -1
3784 1 1.9846534027150273e+01 8.2984969391677055e+00 1.5813203358187021e+01 3 2 0
2171 1 2.3228188319288282e+01 6.6211628698699982e+00 1.5605358694671363e+01 -1 -1 2
1183 1 2.4985264272850461e+01 8.1118185382941288e+00 1.4735932908917086e+01 0 1 2
1310 1 5.4306331927160114e+00 1.0822758543676249e+01 1.4072804355043347e+01 -2 1 0
632 1 4.5213286818484208e+00 1.1484897782219038e+01 1.6459548390189607e+01 0 -2 1
561 1 9.2277596775871444e+00 1.2830333480895945e+01 1.5234536097704050e+01 0 0 0
745 1 1.0327020991864162e+01 1.0475180045961256e+01 1.5427088797530462e+01 1 1 -2
2036 1 1.4476327955018901e+01 1.2119967253186022e+01 1.4194566602547299e+01 0 -1 3
1726 1 1.3580172897744966e+01 1.2833346039054122e+01 1.6515477799396692e+01 1 1 -1
1177 1 1.9596319609878396e+01 1.2591450459665056e+01 1.5235221042050942e+01 -1 -1 0
3125 1 2.5151293186001446e+01 1.2604249099159112e+01 1.3598468168555605e+01 0 0 0
3239 1 2.3814029900206592e+01 1.0470463918469751e+01 1.4677194933701372e+01 3 1 1
1080 1 1.2820394235283052e+00 1.3807064605450710e+01 1.4391450317366033e+01 1 -2 0
2542 1 3.2953104063957315e+00 1.4019021491460981e+01 1.5966116320133390e+01 1 1 1
1245 1 4.9114706869313789e+00 1.6201039086618515e+01 1.5372566573728292e+01 0 1 0
424 1 1.0633020272991763e+01 1.5036558212370032e+01 1.4253746839668937e+01 1 2 2
3326 1 1.2426357878927634e+01 1.5150500836047629e+01 1.6051225594697097e+01 2 -2 2
3824 1 1.6792437154270228e+01 1.5819666311633172e+01 1.4600967064026841e+01 0 1 -1
2015 1 2.6081541771986037e+00 1.3025042217658450e+01 4.8681678837642733e-01 -2 3 1
1763 1 1.7961635927348457e+01 1.9775820570617348e+01 1.3709835037862142e+01 -2 -2 0
2065 1 2.2825576309987856e+01 1.5684973466300002e+01 1.6194171948754324e+01 0 0 0
2455 1 2.3620277127209707e+01 2.5032068530755883e+01 2.6149308700191204e-01 0 1 -3
868 1 3.7528346157079819e+00 1.8516111782258058e+01 1.5300590204606424e+01 -1 -2 -1
1263 1 7.1160063350881657e+00 2.0434617467944967e+01 1.6483436398581460e+01 0 0 0
3802 1 9.5724381588170591e+00 1.7391310514862244e+01 1.4287208547603061e+01 0 0 -3
1337 1 1.4346628685690892e+01 1.6907805547851790e+01 1.5174704234538925e+01 -1 0 1
2403 1 1.8970851639164106e+01 1.7117458097416606e+01 1.3847525198771526e+01 -1 -1 1
3675 1 2.0992598921067376e+01 1.7717632266427273e+01 1.5613325607001149e+01 -1 2 2
3954 1 5.5113290422228101e+00 2.0410073985548514e+01 1.4532832937110044e+01 1 -1 1
1285 1 9.2069268971866105e+00 2.2288756191556576e+01 1.5901236547100940e+01 1 -1 1
3620 1 8.2983074462488258e+00 4.2143952504828412e+00 1.6861971570029013e+01 0 0 -1
2564 1 2.5563679628712649e+01 7.5633420238725471e+00 1.2225264453834587e+01 -1 0 1
3258 1 2.7910290259077231e+00 9.5538093757543887e+00 1.7188793731028394e+01 -1 1 0
2884 1 1.2229167166861195e+01 1.0713303242440746e+01 1.7034586721547900e+01 1 -1 -1
983 1 2.1520009263042017e+01 1.3418718703624766e+01 1.6889811181936334e+01 0 -2 4
1219 1 2.5622123504056304e-01 1.1612147582030699e+01 3.7285344904359432e+00 2 0 0
2417 1 2.5569069137369436e+01 1.5387623785019647e+01 6.2353844628046673e+00 1 1 0
3959 1 2.5619854320917849e+01 1.2329365440896698e+01 2.1169953788944080e+00 0 1 0
3848 1 2.5574577387889175e+01 1.6985674959485443e+01 1.6643751775480915e+00 0 0 -1
4050 1 2.5440662739548845e+01 2.1268493393505246e+01 6.5370487588259796e-01 1 0 0
3733 1 2.0866529976652533e+01 2.5650062954086799e+01 1.0058370153346045e+01 0 1 0
3381 1 1.6698544051815827e+00 2.5568438055233493e+01 1.7161348459885065e+01 1 0 1