LAMMPS data file via write_data, version 7 Aug 2019, timestep = 200000

4089 atoms
1 atom types

2.5454408795265948e-01 5.1165455912048365e+01 xlo xhi
2.5454408795265948e-01 5.1165455912048365e+01 ylo yhi
2.5454408795265948e-01 5.1165455912048365e+01 zlo zhi

Masses

1 18.15

Atoms # atomic

769 1 2.0852024052554459e+00 2.9908416971431713e+00 2.4489571954367233e+00 0 0 1
2510 1 5.9783856419276837e+00 2.9396199334205231e+00 2.7175076531605575e+00 1 0 0
2054 1 8.5225017582658023e+00 5.0410149108969682e-01 2.0694051865889120e+00 0 1 1
3172 1 9.8906597278298207e+00 2.9442158127321201e+00 2.2847296252348186e+00 1 1 0
149 1 1.2258174277388797e+01 2.4890247453797598e+00 1.4864761769963690e+00 0 0 0
3288 1 1.4072927291313466e+01 1.7055538108537680e+00 3.3804510787170408e+00 0 1 0
741 1 1.6400259404528484e+01 3.2431636815149374e+00 2.3080838425567229e+00 0 0 2
1028 1 1.6375007753377684e+01 2.1614839791898802e+01 1.4254759597900539e+00 0 0 1
2374 1 3.4646953697403760e-01 1.2811904400835409e+01 6.1807590329805064e+00 1 0 0
2672 1 1.5296604327369379e+00 5.4034574441972509e+00 1.0492182035704307e+00 1 0 1
3597 1 6.6566072693956420e+00 5.9064900740390414e+00 5.1154908123446552e-01 1 0 1
1002 1 9.3087910312718556e+00 7.5396323800488263e+00 4.0621695406193137e+00 0 0 1
1060 1 1.3215533535394009e+01 5.2425761194414759e+00 2.0147947453089050e+00 0 0 0
1375 1 1.7131806616213279e+01 7.5264215153058496e+00 1.5643618442984399e+00 0 1 0
2117 1 1.8992464863761310e+01 7.5804849938472019e-01 1.0041491387672570e+01 0 0 0
119 1 1.7064152491106693e+01 5.6820697256455457e+00 3.5389632543962182e+00 0 0 0
2237 1 2.5697201518309665e+01 2.0283937747475242e+01 1.0113025149489683e+01 0 0 0
3487 1 2.3933576297985994e+01 5.1801108424436197e+00 4.0953612609436858e+00 0 0 0
269 1 2.9058616428857067e+00 1.9140047456397188e+01 1.6493084991397190e+01 0 0 0
1485 1 2.2907381345450855e+00 7.0197768335175832e+00 2.9205355067580263e+00 0 1 1
802 1 6.4694274298269026e+00 7.0394868088159797e+00 3.1869455508389128e+00 0 0 1
2527 1 1.0199123588297853e+01 8.5224502745007005e+00 1.4656267073412395e+00 1 0 1
834 1 1.6005810574156733e+01 9.9062470151519211e+00 3.2190746425903414e+00 0 0 1
865 1 1.9204488292158974e+01 1.1517257464541132e+01 1.1629658357093466e+00 0 0 1
584 1 2.2173216924672765e+01 8.8716796803835578e+00 3.6326626236251429e+00 0 0 0
194 1 1.9851865568783694e+01 6.1405239226741761e+00 1.4598306248926884e+00 0 0 0
22 1 2.4859456501665100e+01 6.4694924852030189e+00 1.9146866262245879e+00 0 0 0
2337 1 3.2618775497183861e+00 1.2483808079038955e+01 2.9054707293252640e+00 1 0 0
2881 1 6.0955381606587382e+00 1.1732447064938436e+01 3.3779182739549567e+00 1 0 0
2313 1 2.7480838114712385e+00 1.0398820945571410e+01 4.6317976689729621e+00 1 0 0
3876 1 3.3509701450962592e+00 1.0270225049893522e+00 1.0443011918390685e+01 1 1 1
2834 1 8.9210575110009245e+00 1.1176449037081252e+01 2.7226459523628641e+00 1 0 1
4006 1 1.2377900456156446e+01 9.9872362747223473e+00 2.5008743936244224e+00 1 1 1
478 1 2.4206594491380574e+01 2.1867752767258491e+01 3.3792150846444815e+00 0 0 0
3084 1 1.5565218388466306e+01 1.2657129910722968e+01 2.9506885117208377e+00 1 0 1
1420 1 1.7249339495916164e+01 1.3134020927787732e+01 5.1800002726536301e+00 0 0 0
317 1 2.0426914510501941e+01 1.0989177061276569e+01 3.2444387278360693e+00 0 1 0
3000 1 5.0041250891085447e+00 1.6491919590170166e+01 2.2344445619150797e+00 1 0 1
2034 1 9.4696013261606975e+00 1.3806474632370751e+01 1.1741579378614513e+00 0 0 1
423 1 1.2217148122787467e+01 1.4250049714514450e+01 1.0919596253686059e+00 0 0 1
2177 1 1.2740216975492494e+01 1.2793478894366908e+01 3.4535048534652151e+00 0 0 0
2199 1 1.7616415616287089e+01 1.3582663495068196e+01 1.6317144302285969e+00 0 0 0
147 1 2.0303959783354120e+01 1.5042964188632533e+01 1.9798176048201053e+00 0 0 0
51 1 2.3865234540825824e+01 1.3688444302618295e+01 1.6042125937427154e+00 0 0 0
1141 1 2.1803175575341836e+01 1.3473641655850900e+01 3.5108357625252475e+00 0 0 0
4007 1 6.7797617893881557e-01 1.6958556936343779e+01 1.6796533785116100e+01 1 1 1
3769 1 3.3743792723053727e+00 1.8449546378594938e+01 2.4295537495610930e+00 1 0 1
422 1 7.4890491152550451e+00 1.7547263871351063e+01 2.6940377781209128e+00 0 0 0
2176 1 8.5648643574144803e+00 2.1018246287228632e+01 2.4240990158945848e+00 1 0 0
9 1 1.0865886381361047e+01 1.9780031637588735e+01 1.5508736980687872e+00 0 -1 0
3340 1 8.1237949408140808e-01 6.0033854188936990e+00 1.6834592430082935e+01 1 1 0
96 1 1.7560009362759665e+01 1.6621589018086784e+01 3.0888742093848083e+00 0 0 0
2327 1 2.1477476302643112e+01 1.7163324330278549e+01 3.7685020501782129e+00 0 0 0
1421 1 2.5364085333094572e+01 1.6113031555775223e+01 1.0901023826068434e+01 0 -1 0
3139 1 2.5197433307976560e+01 1.7343922645016260e+01 2.3160929607556975e+00 0 0 0
546 1 2.4054967451703714e+01 2.3819157391667574e+01 1.2453174832187344e+01 0 0 1
3665 1 1.9942537628158294e+00 2.1456705710168961e+01 4.5104899878708569e+00 1 0 0
2723 1 2.4883294418004777e+01 2.8279393477109123e+00 1.3865745868435100e+01 1 0 0
1968 1 6.1457499524596857e+00 2.0257517411242794e+01 2.0480462190027819e+00 0 0 1
824 1 1.2581346895120372e+01 2.1224223350597768e+01 2.8398021008692353e+00 0 0 1
870 1 1.5041540851608531e+01 2.0175829113109280e+01 3.1756144716925379e+00 0 0 1
1371 1 1.5135748669826192e+01 1.7626969286911041e+01 3.1384408281964262e+00 0 0 0
1146 1 1.8994131408310221e+01 1.9139187240265070e+01 3.4669991901817805e+00 0 0 0
1084 1 1.8843854562526147e+01 2.1189417821240838e+01 2.1659117311093379e+00 0 1 0
2755 1 2.5317809044681617e+01 1.8931664065863512e+01 4.4634588381360016e+00 0 0 1
1479 1 2.4097820224145008e+00 2.3259259555143785e+01 2.5158921767590106e+00 0 0 0
1374 1 2.5549188440972877e+01 1.5957518201814899e+01 1.3713029450215870e+01 0 1 0
820 1 5.3051938439039441e+00 2.3076346780163636e+01 2.8271557252048458e+00 0 0 1
1176 1 3.2252268009614631e+00 7.5590199374895581e+00 1.6801885762016344e+01 0 1 0
31 1 1.2706681779748470e+01 2.3522362675460126e+01 1.2784982421448148e+00 0 0 0
3514 1 1.5266621236154908e+01 2.3935863055174892e+01 1.8364804471327516e+00 0 0 0
2281 1 2.5018470076727983e+01 1.3476721311152520e+00 9.1158177625328718e-01 0 0 0
3545 1 2.0123863761178988e+01 1.8685903625873552e+00 2.8582233999932170e+00 0 1 0
1786 1 2.2360332956583161e+01 2.3722120680866432e+01 3.2369959154489094e+00 0 0 1
1855 1 5.0888058645772227e-01 9.0374236902674365e+00 3.6213843666013648e+00 0 0 1
394 1 1.6987701930638494e+01 9.8482477714903716e-01 1.7014265122623623e+01 0 0 0
3909 1 3.3536824869873008e+00 2.1322000656433815e+00 6.3744232994607328e+00 1 0 1
294 1 7.0487110992650273e+00 2.0405648910028535e+00 6.0384161114219062e+00 0 0 0
1348 1 1.1277696437604078e+01 9.0665128050886790e-01 6.9410322549078458e+00 0 1 0
2191 1 1.3772216153102024e+01 2.7584840386426075e+00 6.3286797110201807e+00 0 0 0
1900 1 6.0598488670916240e-01 1.9381744445708719e+01 3.1918672844734663e+00 0 0 1
1081 1 6.7310666407187891e-01 1.0281208616828833e+01 7.1206663338874963e+00 0 0 0
3830 1 2.1767954519462005e+01 3.4865425635394240e+00 4.7711598339335319e+00 0 1 1
1098 1 3.6884601846827554e+00 3.9499744727238877e+00 4.4095063243162729e+00 0 1 0
2880 1 1.7228928776445369e+00 5.7567288148027620e+00 5.3499953800718858e+00 1 0 1
2840 1 6.6243259045840492e+00 5.1478327855379735e+00 5.2942356839551428e+00 1 0 1
1378 1 9.1168287713822789e+00 4.3460278564353789e+00 4.4209923503912467e+00 0 1 0
1329 1 1.1878399306492851e+01 4.7986210935371565e+00 6.2020707358029084e+00 0 1 0
1381 1 1.2035232225589986e+01 6.5904791757741581e+00 3.9131602959540395e+00 0 0 0
3926 1 1.5002783459589786e+01 5.3931860782621257e+00 5.2283760748598693e+00 0 1 1
3068 1 1.9134087559626956e+01 5.7604949133677215e+00 5.3080968601595186e+00 0 0 1
2132 1 2.1225810389332011e+01 6.4866179278662806e+00 3.7226611160667402e+00 0 0 0
3370 1 6.1815524634906831e+00 1.0249729291691397e+01 6.1950323348675616e+00 1 1 0
1397 1 6.7346221413522684e+00 1.2668335383147072e+01 7.0153149486677053e+00 0 0 0
12 1 8.7449706065021857e+00 8.9879278508698608e+00 6.1036869130243607e+00 0 0 0
2778 1 1.3577555140744305e+01 8.8481332411577363e+00 5.0142386348836974e+00 1 0 1
1294 1 1.2999454126555852e+01 1.0972549130455535e+01 6.2881150352123099e+00 0 1 0
587 1 1.9139145410056706e+01 8.3691207366436782e+00 6.2177265375632311e+00 0 0 0
1196 1 2.0796418590537794e+01 8.0454477865457203e+00 8.3634175018462571e+00 0 1 0
284 1 2.3687135490343298e+01 9.3310858691292555e+00 5.8547560955358682e+00 0 0 0
3622 1 3.8246657965948039e+00 9.4777468753245540e+00 7.4197852644896276e+00 1 1 1
56 1 6.5354948358214999e+00 1.4308307575916078e+01 4.7292345510329206e+00 0 0 0
81 1 1.0202099612749645e+01 1.2080888569614123e+01 5.3131243755225723e+00 0 0 0
48 1 1.5087074451862597e+01 1.2943200562320390e+01 6.8692129140073099e+00 0 0 0
348 1 1.8497142015298440e+01 1.0746603380297222e+01 5.0604991789982927e+00 0 0 0
6 1 2.0157871423056765e+01 1.2009859013438495e+01 7.2295888856508590e+00 0 0 0
1471 1 2.2102551255284911e+01 1.0153800990880484e+01 7.8506431283680733e+00 0 1 0
3335 1 2.3481308288230309e+01 1.2899242945259557e+01 5.6829213288555138e+00 0 0 0
1315 1 2.7034059599408486e+00 1.3599500445971728e+01 6.8927150148077709e+00 0 0 0
2585 1 3.6612000487707994e+00 1.4817846867402237e+01 4.3060692017964435e+00 1 0 0
2297 1 1.0728720132373390e+01 1.7443572782091231e+01 8.1184512704475313e+00 1 0 0
355 1 9.2590944484073834e+00 1.4791693151025685e+01 3.7833798051252909e+00 0 0 0
1869 1 1.2409790205587420e+01 1.5681144269120683e+01 4.4665652402815201e+00 0 1 1
288 1 1.8606498361769006e+01 1.5602730376330015e+01 5.4407626842780434e+00 0 0 0
130 1 1.6723947995131233e+01 1.6170843615291446e+01 7.1217034345467169e+00 0 0 0
2266 1 2.0900390614179212e+01 1.4661275399544357e+01 6.6186850542231701e+00 0 0 0
772 1 2.1965384415650732e+01 1.7422404124002242e+01 7.0344756617010757e+00 0 0 1
799 1 2.4760532786207293e+01 1.4618310572804269e+01 7.2566345211769159e+00 0 0 0
2509 1 2.0839117549152739e+00 1.6701598302668682e+01 6.6017210107409667e+00 1 0 0
3032 1 4.1308316274108492e+00 1.8279645294501723e+01 6.9511129002636576e+00 1 0 1
1070 1 6.4586594571664317e+00 1.6706980238499995e+01 6.6823454324424469e+00 0 0 0
2955 1 8.8398098895302688e+00 1.8369725456985226e+01 6.7531743048985691e+00 1 0 1
3187 1 9.8183680693890647e+00 1.7479501807780842e+01 3.8020353266121787e+00 1 0 0
71 1 1.4411213146052788e+01 1.7194081908421623e+01 5.6522247891318420e+00 0 0 0
258 1 1.8500599938926662e+01 1.9865663216415136e+01 5.9283810768036380e+00 0 0 0
4036 1 2.0372169183118782e+01 2.1592495316793809e+01 6.2961535225174741e+00 0 0 1
506 1 2.4393693017116721e+01 1.7095969340171219e+01 6.7814732853701374e+00 0 0 0
2923 1 1.9748607351589924e+00 2.3424283132272201e+01 1.3674428777965192e+01 1 0 1
131 1 1.6382619064776112e+01 2.3007907321721014e+01 1.6164353463433578e+01 0 0 0
3204 1 4.3903019199926288e+00 1.9845478645763674e+01 4.7553054804472366e+00 1 0 0
2221 1 6.2079094614010328e+00 2.1972774001751816e+01 5.5043754262895517e+00 1 0 0
3083 1 8.7962063362608980e+00 2.0481291250562535e+01 5.0819792266971744e+00 1 0 1
1904 1 1.4702007358628203e+01 1.8578428820676052e+01 9.3865704422600231e+00 0 0 1
3856 1 1.1457400148211013e+01 2.1517279229421419e+01 5.2438366538947232e+00 1 0 1
2839 1 1.6228374695032386e+01 2.1563564031670680e+01 5.2479955766938637e+00 1 0 1
1179 1 2.2556506401120792e+01 1.9683888254892342e+01 5.0586892961902565e+00 0 0 0
2151 1 1.9827755373369243e+01 2.2934102635160727e+01 3.9872992572443522e+00 0 0 0
4084 1 2.0069458128347588e+01 3.7179262099993884e+00 5.3914106157073027e-01 0 1 1
3605 1 1.0362790375811374e+01 2.4098945855127237e+01 4.7691513512437824e+00 1 0 0
3110 1 1.5779582207728543e+01 2.4012697061047042e+01 4.4730984880683380e+00 0 0 1
3564 1 1.8081934659752523e+01 2.4895694416474683e+01 4.1689561026222659e+00 0 0 0
728 1 1.1729797727947165e+01 2.5272012830160620e+01 1.2160166285652773e+01 0 0 1
737 1 2.2423836292030906e+01 2.5021486694515705e+01 6.7124390293480776e+00 0 0 1
1470 1 1.3848200490304814e+00 1.1215096078943896e+01 1.6917291085569893e+01 0 1 0
504 1 2.5333882621125742e+01 1.3128568528394203e+01 1.4472479896407663e+01 0 0 0
611 1 5.4899106318979953e+00 1.9685927004984758e+00 8.1143820463996814e+00 0 0 0
926 1 9.2881724099767933e+00 2.7364396759433758e+00 7.5071821681719140e+00 0 0 1
661 1 9.5057200762893626e+00 1.5705209448938322e+00 1.0076354830913063e+01 0 0 0
658 1 5.0668440674794049e+00 2.5472474862910239e+01 4.1689716354770532e+00 0 0 0
1087 1 1.4962907567596513e+01 2.4032291518006859e+00 9.1122713889498428e+00 0 1 0
969 1 1.6642739104110937e+01 2.4565432702192989e+00 6.5831974476454160e+00 0 0 1
2943 1 3.2610432135831258e+00 2.2968393718820113e+01 1.6079576506331087e+01 1 0 1
2291 1 1.9803225476707887e+01 3.1138894369281940e+00 8.6612493195308389e+00 1 0 0
733 1 2.4371093176423443e+01 1.6213952528363198e+00 5.7048693292138148e+00 0 0 0
3497 1 1.1031017612698426e+01 2.4733280290932569e+01 1.5157002045956693e+01 1 0 0
3450 1 5.7072762185325594e+00 5.5385100128042994e+00 7.8537195947620901e+00 0 1 1
66 1 5.6878607174991034e+00 3.8221338550445241e+00 1.0275088696449512e+01 0 0 0
2249 1 9.6824916336582465e+00 5.1163326145554056e+00 9.4996010247181442e+00 1 0 0
1284 1 1.2223109492743005e+01 5.9956900692907125e+00 8.4558290406351002e+00 0 1 0
3921 1 1.4064312965834713e+01 4.6016998367859276e+00 1.0118230988613837e+01 1 0 1
2216 1 1.8287878356005049e+01 5.0875940227297765e+00 7.7632108587807451e+00 0 0 0
351 1 2.2172952299936217e+01 3.3357558684078956e+00 7.4019830771386301e+00 0 0 0
945 1 2.5620826060371929e+01 3.5383329726093447e+00 1.1155725910860546e+01 0 0 1
2763 1 2.3675509439991579e+01 5.6604895962863129e+00 1.0216264544173061e+01 0 0 1
2807 1 2.4944865390057052e+00 1.3287317482485153e+00 1.6135641283243956e+01 1 0 1
482 1 3.0980605758980864e+00 6.5967016148368929e+00 7.3439625632788674e+00 0 0 0
380 1 1.3616791043587599e+00 7.6535837044170227e+00 1.0585828270817645e+01 0 0 1
766 1 7.4838181529225256e+00 8.6863972465883190e+00 1.0247510068839242e+01 0 0 0
2495 1 8.1202856504571663e+00 6.9923363488137280e+00 8.2601343748516012e+00 1 0 0
1576 1 1.0950905392699083e+01 9.8414038130801931e+00 7.8973051951304081e+00 0 1 1
3061 1 1.2574768125763411e+01 8.4520191307625350e+00 9.6239661030960804e+00 1 0 1
2617 1 1.4673553874482653e+01 7.3227737784395250e+00 7.0572012429391302e+00 0 0 1
3252 1 1.6697422237877859e+01 8.8667155916478784e+00 7.6624852632919183e+00 1 0 0
1188 1 1.7387672375399791e+01 7.2803965462267266e+00 9.6283083000506302e+00 0 1 0
1203 1 1.9855357394088191e+01 7.8174435829509727e+00 1.0950474141072998e+01 0 1 0
1383 1 2.2833591737959626e+01 6.0534242677166903e+00 7.7824464910906084e+00 0 1 0
1481 1 7.9886945385229273e+00 2.3362026288521189e+01 1.3763105472205028e+01 0 0 0
1100 1 5.0358762178893111e+00 9.9625642059605877e+00 9.9282489986179190e+00 0 1 0
208 1 4.8848762134416805e+00 1.2598888435167815e+01 1.1435518724958007e+01 0 0 0
4019 1 7.4328098319672469e+00 1.3431171392474894e+01 1.2268252341945884e+01 1 0 1
299 1 8.8925670189128532e+00 1.3164101797301937e+01 8.1244229011403473e+00 0 0 0
1185 1 1.2163644406555111e+01 1.2308853816686890e+01 1.0610299535971837e+01 0 1 0
2043 1 1.4454558110056164e+01 1.0405714316897472e+01 1.0522595509020753e+01 0 0 1
2299 1 1.6304427895003542e+01 1.1423986489075050e+01 8.7703300856855559e+00 0 0 0
1310 1 1.8612268025209200e+01 1.2773875107261267e+01 9.4785784525759773e+00 0 0 0
1858 1 2.3694385368373265e+01 1.1227975590797749e+01 9.6807449929154252e+00 0 1 1
2468 1 1.7378186870544210e+00 1.4536163066177483e+01 9.5054286432205490e+00 1 0 1
292 1 4.8859723539571958e+00 1.3059389011787871e+01 8.6773936272076106e+00 0 0 0
333 1 5.7835278184854060e+00 1.5532205503042087e+01 9.2294833305039088e+00 0 0 0
220 1 8.2549830330821585e+00 1.4748981192691955e+01 1.0283622117657234e+01 0 0 0
3439 1 1.1448450033215503e+01 1.4749186317374267e+01 7.2256114276529830e+00 0 0 0
465 1 1.3303471535572370e+01 1.4080245512250023e+01 8.8793291928993767e+00 0 -1 1
1966 1 1.4763226239816396e+01 1.5960097309605070e+01 1.0364875306499233e+01 0 1 0
8 1 1.7281693930452551e+01 1.5271570285242817e+01 9.6930657827338997e+00 0 0 0
342 1 2.1010843288643105e+01 1.3683814174306834e+01 1.2226572527205112e+01 0 0 0
757 1 2.0974140297333705e+01 1.5021387724047836e+01 9.3626591042792100e+00 0 1 1
773 1 2.3722505964462545e+01 1.3968132041011973e+01 9.9617825679717882e+00 0 0 1
2055 1 4.5257914655704221e+00 3.7589690971538388e+00 1.5407403518741523e+01 0 1 1
2211 1 4.4634417814056571e+00 1.9682689182020290e+01 9.5563168917517345e+00 1 0 0
856 1 1.2911837787344085e+01 1.8898795814547373e+01 7.3056872604136549e+00 0 0 1
2978 1 1.1062579883949635e+01 2.0253218054482556e+01 9.9725623032480133e+00 0 0 1
899 1 1.9322989002501078e+01 1.7298236384849549e+01 1.0528070343339220e+01 0 0 1
1234 1 2.2128206021689969e+01 1.8008792977109856e+01 1.0278083943716437e+01 0 0 0
3307 1 6.5586866555019832e+00 5.6277766568119714e-01 3.8208019633939223e+00 1 1 0
2662 1 1.6822381336560168e+00 2.0378648267977912e+01 9.1737574039578913e+00 1 0 0
776 1 2.1780706453662790e+00 2.3126420701263232e+01 9.4127138728799036e+00 0 0 1
1336 1 5.6453248114975274e+00 2.2345600294546408e+01 8.2698653785133409e+00 0 0 0
3925 1 7.4816021975041140e+00 1.9956436456755497e+01 8.9224778370084881e+00 1 0 1
1444 1 9.7179998882289453e+00 2.1983678957109390e+01 7.8465325033141706e+00 0 0 0
74 1 1.3693036941290336e+01 2.1756818712751077e+01 7.1268993906150975e+00 0 0 0
3197 1 1.1134326158156677e+01 2.3129677131789684e+01 1.0084145463268909e+01 1 0 0
1429 1 1.7117280038901953e+01 1.8741516578338324e+01 7.9966552240964077e+00 0 0 0
1411 1 1.6965803993787510e+01 2.2314727775362872e+01 1.0019596072073849e+01 0 0 0
1454 1 1.8391549386481426e+01 1.9935771013896009e+01 1.0211118630827938e+01 0 0 0
1777 1 2.0869252524456954e+01 2.0658540880076433e+01 9.0085998943668333e+00 0 0 0
2171 1 2.3296088806286136e+01 2.2015851875120994e+01 6.9244102369170459e+00 0 0 0
1321 1 3.9772741701803231e+00 2.4565419760314693e+01 8.3051666990108988e+00 0 0 0
185 1 8.1084694884435571e+00 2.4031002630634902e+01 8.4354336925992044e+00 1 0 0
981 1 1.3844950049089078e+01 2.2506677217874024e+01 9.9274091375461424e+00 0 0 1
2275 1 1.8503797934687757e+01 2.4624698835377679e+01 1.0101723901005629e+01 1 0 0
3574 1 7.7243548757882030e-01 2.5148527562207757e+01 4.1866101821038200e+00 1 0 0
295 1 3.0406390508751002e-01 2.1223999313207603e+01 1.4317520134215009e+01 0 0 0
1408 1 6.9011619149765666e+00 2.0698724349087968e+01 1.4145719731596246e+01 0 0 0
2791 1 7.1688572787376055e+00 3.4848543635545171e-01 1.3468952192149553e+01 1 0 1
1327 1 7.6952624681883526e+00 2.7838321493904434e+00 1.1892887337965421e+01 0 1 0
18 1 1.2027260898746224e+01 1.0513722372900167e+00 1.1014722048232032e+01 0 0 0
217 1 1.6785988344458900e+01 1.7411985472101217e+00 1.1158409193151044e+01 0 0 0
225 1 2.8513022319734205e-01 2.3345236547803754e+01 7.0219348504551538e-01 0 0 0
3742 1 1.4497422738235747e+01 2.5588004950745262e+01 1.2441171006625458e+01 1 0 0
500 1 2.1815665967940987e+01 4.0563841104873690e+00 1.3394252767523920e+01 0 0 0
133 1 1.5653373302801707e+00 4.7800255982061026e+00 9.5957000994329622e+00 0 0 0
1387 1 2.3559267177216181e+01 1.9297481727688319e+00 9.7665400223713519e+00 0 1 0
3074 1 3.1924145725972566e+00 3.5626391489591169e+00 1.1218603464162705e+01 1 0 1
4038 1 1.4657064033409848e+00 4.3038952895224654e+00 1.3776547257565694e+01 1 1 1
2210 1 1.0335223333878583e+01 4.7915489381650156e+00 1.2087372693892982e+01 1 0 0
474 1 8.3921778190015406e+00 4.4879094505716006e+00 1.4149845344538019e+01 0 0 0
1430 1 1.2557118382502317e+01 3.2930499975611416e+00 1.2214188176665004e+01 0 1 0
2230 1 1.7753833097899491e+01 4.0255912960980105e+00 1.2280049244852668e+01 0 0 0
2642 1 1.6077221124132457e+01 5.5854222806442841e+00 1.1280712337667802e+01 0 0 0
861 1 1.9925825665379449e+01 4.7072898632774116e+00 1.0991755155865066e+01 0 0 1
224 1 2.2274658516672993e+01 6.6212236510996032e+00 1.2474094053717339e+01 0 0 0
2471 1 3.7960796481771908e+00 8.0470144151198220e+00 1.1586475195578414e+01 1 0 0
503 1 6.2249861267611823e+00 6.7348998578931605e+00 1.1197997463585288e+01 0 0 0
103 1 9.4728194244759418e+00 1.1050932463018327e+01 9.5329638398197378e+00 0 0 0
1447 1 1.1229553565158634e+01 7.4310642877688649e+00 1.1869212127136988e+01 1 0 0
250 1 1.5789572169848880e+01 7.2718319126356707e+00 1.3523712724278795e+01 0 0 0
4078 1 1.9954595412587949e+01 9.6812265568534617e+00 1.2605390545264772e+01 1 1 0
3017 1 2.3923102355618209e+01 8.7862468871847330e+00 1.2991649655884048e+01 0 0 1
2378 1 2.4607764524284807e+01 9.8383677989836862e+00 1.5234442543534016e+01 0 0 0
368 1 3.6150738095341892e+00 1.0035760697937111e+01 1.3607471995248391e+01 0 1 1
2724 1 5.7048666337429110e-01 1.1843238630800341e+01 1.2842681172147023e+01 1 0 0
128 1 6.2150372159311420e+00 1.0964561122363179e+01 1.4119733291130020e+01 0 0 0
1641 1 9.3603610817232248e+00 1.1792038406031081e+01 1.2723668038817182e+01 0 0 0
3256 1 1.5917975603153065e+01 1.0201372689168950e+01 1.2975385338336668e+01 1 1 1
2088 1 1.8011852895701363e+01 1.1198135914466491e+01 1.1801689321301829e+01 0 0 1
4002 1 2.2579251410938916e+01 1.0635752975156453e+01 1.1895445484390159e+01 0 0 1
3337 1 2.2609949150929783e+01 1.2182404325821507e+01 1.3895938856390844e+01 1 0 0
1301 1 8.0819668616022122e-01 1.3380925774865979e+01 1.5531643145142917e+01 0 0 0
3611 1 1.4504906417366445e+00 1.7350589015122445e+01 9.3054109995953151e+00 1 1 0
1033 1 4.2228692029797408e+00 1.7219964525692532e+01 1.0958034674270579e+01 0 0 1
814 1 2.5942141993491923e+00 1.3673796585305636e+01 1.2077080652320264e+01 0 0 1
511 1 1.3265990085295794e+01 1.3192521749429789e+01 1.3142842948108109e+01 0 0 0
1019 1 1.1387426498206715e+01 1.4758177391742139e+01 1.4659986171652696e+01 0 0 1
2062 1 1.5271829599213119e+01 1.4696574124066279e+01 1.2627256257076837e+01 0 0 1
1191 1 1.8165229472786379e+01 1.3747865516462067e+01 1.3139343936072107e+01 0 0 0
279 1 1.8324805428917102e+01 1.6683907211687785e+01 1.3077151608798506e+01 0 0 0
254 1 2.1509849429218480e+01 1.5688568134773618e+01 1.4196418380042855e+01 0 0 0
195 1 1.2039789937917661e+01 2.2456576735411101e+01 1.6509246134295353e+01 0 0 0
3498 1 6.9419649733576163e+00 1.7614637814194769e+01 1.2316480660535342e+01 1 0 0
932 1 8.8722536999279953e+00 1.5979233205898595e+01 1.3978552436896328e+01 0 0 1
1105 1 9.9632675917122846e+00 1.6772809361243638e+01 1.0855086380663893e+01 0 0 0
1417 1 1.2499291167979981e+01 1.6912521948179709e+01 1.2512862691740512e+01 0 0 0
1500 1 1.5632956935522543e+01 1.6778416444241415e+01 1.4219928423495389e+01 0 0 0
245 1 1.9940787491453797e+01 1.7912212192543624e+01 1.4797221360995811e+01 0 0 0
87 1 2.1673797093687210e+01 1.9887851167074476e+01 1.3708859068104394e+01 0 1 0
212 1 2.2996321891426636e+01 1.7376706996183724e+01 1.2778547376661839e+01 -1 0 0
913 1 3.7633690846440802e+00 2.2819289192407648e+01 1.1771859500247766e+01 0 0 0
3685 1 4.3111251714993424e+00 2.0291016705612897e+01 1.2319533515095955e+01 1 0 0
3275 1 8.7162627391837617e+00 1.9640008286925507e+01 1.1588039538974792e+01 0 0 0
3721 1 8.5225154907599538e+00 1.8871121036725999e+01 1.5200271888485743e+01 0 0 0
1539 1 1.3539881510856487e+01 1.9388341179885639e+01 1.1804675094347186e+01 0 0 0
709 1 1.5330548643111948e+01 1.9544930057589880e+01 1.3790306889979426e+01 0 0 0
1280 1 1.8104293083333349e+01 1.9909572928418758e+01 1.3084805906788770e+01 0 0 0
1580 1 2.1751862252018846e+01 2.2145915916034255e+01 1.1946864837299785e+01 0 0 0
967 1 7.9537764957483699e+00 2.3641901625625703e+01 1.3337253843839474e+00 0 0 1
3012 1 2.3480134392945246e+01 2.1951185658008789e+01 9.5995997382322322e+00 1 0 1
1062 1 5.7077252110684675e+00 2.4983482793796888e+01 1.2753938029017101e+01 0 0 0
2201 1 1.7591636978424926e+01 1.6128370200856053e+00 4.0556620743529121e+00 0 0 0
2258 1 1.0265362235975545e+01 2.2272865212979688e+01 1.2785316396012110e+01 0 0 0
3410 1 1.3869328593665641e+01 8.7524413080498391e+00 5.7486496288154865e-01 0 0 0
1388 1 8.6070046040920225e+00 2.5404633901772542e+01 1.1442661567970505e+01 0 0 0
2841 1 1.4545172597703026e+01 2.2598550082657987e+01 1.2671743594481587e+01 1 0 1
1865 1 1.7356109236098341e+01 2.2578685161393338e+01 1.3598751441009638e+01 0 0 1
276 1 1.9821308746073985e+01 2.3967280295931722e+01 1.2402266959232866e+01 0 0 0
649 1 1.3771871758296287e+01 1.6484125287762669e+01 8.8255072317834449e-01 0 0 1
1528 1 3.9058287647075696e-01 2.3980575827967712e+01 6.9490245920441911e+00 0 0 1
2170 1 1.2847191380029711e+01 1.4522522416937016e+00 1.6719131214682534e+01 0 0 0
3021 1 2.4589953057281175e+01 1.8076123037104878e+01 9.4331812503545951e+00 0 0 1
2259 1 2.2609517251121622e+00 1.9392317429267013e+01 1.3814422011882792e+01 1 0 0
3399 1 2.5383358210127746e+01 1.0903357276041275e+01 2.1168721798389667e+00 0 0 1
526 1 2.0569142857131478e+01 2.5039554110147666e+00 1.5598201830165769e+01 0 0 0
2767 1 8.3897197738238982e-01 3.6568019625383441e-01 3.4534622167021105e+00 1 0 1
1186 1 3.6536770453674308e+00 6.3941656292272349e+00 1.4481121267983468e+01 0 1 -1
2106 1 6.4291182387047510e+00 6.3447519043079836e+00 1.3946394995641947e+01 0 0 1
3417 1 1.1303258205882765e+00 2.9883534341528368e+00 7.7799375546802469e+00 1 1 1
2792 1 2.4698579047103935e+00 1.3624635874691387e+01 6.2334552245119113e-01 1 0 1
14 1 1.0313377630828679e+01 4.4165386817932077e+00 1.6165201391098712e+01 0 0 0
2346 1 1.2690962628046139e+01 3.8180865809926479e+00 1.4989379056913112e+01 1 0 0
507 1 1.6417639623806284e+01 3.4880177854450478e+00 1.6486143781003598e+01 0 0 0
2526 1 1.8494850597669078e+01 4.2363391714108829e+00 1.4965551265860251e+01 0 0 0
2366 1 8.0106798468101670e-01 1.7316127246813085e+01 1.2633363575329719e+01 1 0 0
3119 1 8.4417104269024552e+00 2.4209585010550160e+01 1.6463091850446105e+01 1 0 0
3903 1 2.3971970526732647e+01 5.4632914634369367e+00 1.5537984541877462e+01 0 1 1
813 1 1.1367068807369728e+01 1.8738641962531698e+01 1.4709075156508510e+01 0 0 1
1646 1 7.3919321705251422e+00 8.6194274286868797e+00 1.4775562407104799e+01 0 1 0
2059 1 1.2651678648807772e+01 2.4303812016148765e+01 6.8337705926356724e+00 0 0 1
947 1 1.1676572878981869e+01 7.5707433733277600e+00 1.4871592975350181e+01 0 0 1
637 1 1.4123781573344958e+01 5.9486265795031708e+00 1.5350896660114655e+01 0 0 0
714 1 1.7797083106668051e+01 7.2100501217796360e+00 1.5361788573099968e+01 0 0 0
361 1 1.9926672415909557e+01 8.8649930219323920e+00 1.5184103218219901e+01 0 0 0
535 1 2.2157615967936064e+01 7.9111385666451763e+00 1.5887171297221544e+01 0 0 0
1668 1 1.2187270979386774e+01 2.1195569063651060e+01 1.4070256296259394e+01 0 0 1
711 1 6.2321255754382088e-01 9.2541595935350003e+00 1.3644724314600102e+01 1 0 0
3990 1 2.3567664971291844e+01 8.8642937834754409e+00 1.5369415863895859e+00 0 0 1
2413 1 9.0500744162863658e+00 9.0034068996842187e+00 1.2414566442308786e+01 1 0 0
560 1 1.2013968883818970e+01 1.0378512306082406e+01 1.5541256559898159e+01 0 0 0
1839 1 1.4531901976332954e+01 1.1189176379441770e+01 1.4939725035390602e+01 0 0 0
1256 1 1.9430888023188782e+01 1.1154873347800512e+01 1.6643001014496530e+01 0 1 0
2131 1 2.2113540951609128e+01 1.1542109487573084e+01 1.6469380313858604e+01 0 0 0
964 1 6.9186523215918934e+00 2.1906472692180099e+00 1.5625712049325005e+01 0 0 1
1989 1 2.6040821782444064e+00 1.5407786536807523e+01 1.6459526585398478e+01 0 0 1
659 1 5.6458652761880490e+00 1.2498894296400108e+01 1.6929069941403935e+01 0 0 0
805 1 6.1903043069729389e+00 1.4561150276770855e+01 1.4832065435866053e+01 0 0 0
2600 1 9.9440382304843116e+00 1.2440285083927678e+01 1.5432470057378096e+01 1 0 1
691 1 2.4746350433077485e+01 6.8987288686749002e+00 6.1371712127954217e+00 0 0 1
399 1 1.5992459868029538e+01 1.2740950446342687e+01 1.6665088406796137e+01 0 0 0
3398 1 1.4885950792850680e+01 1.5411256507468122e+01 1.6664208436589430e+01 1 0 0
347 1 1.8377622905110041e+01 1.3394486685650172e+01 1.5846829089220595e+01 0 0 0
206 1 4.6298828707053765e+00 8.8057004747424372e+00 2.9449143382715635e+00 0 0 0
2183 1 2.2219003798708673e+01 1.4281615268031951e+01 1.6761643193428114e+01 0 0 0
1687 1 4.5350479105290731e-01 1.3109429352133457e+01 3.3897478884252763e+00 0 0 0
644 1 1.4605271889771700e+01 2.0661313774667480e+01 1.6105266613921984e+01 0 -1 0
141 1 3.4020929942077696e+00 1.5841524612295510e+01 1.3859638953325307e+01 0 0 0
1589 1 5.1869275418665932e+00 2.1050614270898478e+01 1.6372489040221556e+01 0 0 0
2353 1 2.4011225679636457e+01 2.4978415060249255e+01 8.8516761611694346e+00 0 0 0
3357 1 3.7112311691151003e+00 1.0194421445849052e+01 7.7071382604777938e-01 1 1 0
2144 1 2.1623084048563154e+01 1.6990594766487646e+00 1.1686758076145233e+01 0 0 0
1045 1 2.1384006843804748e+01 2.4554422650007702e+01 9.4778336416338427e-01 0 0 1
1225 1 2.2754896416483703e+01 9.3670275737818498e-01 1.5075932122488599e+01 0 1 0
1424 1 7.7522420884561445e+00 2.4766720768473487e+01 5.6981569089609128e+00 0 0 0
242 1 6.7074357174571775e+00 1.6576797588928038e+01 1.6514428576517744e+01 0 0 0
2646 1 2.5439951708003605e+01 2.1117914474593604e+01 3.7440990869911006e-01 0 0 1
2308 1 1.0412353629511923e+01 6.9132480011789905e+00 1.7127508854177155e+01 1 0 0
2207 1 3.9808514105108066e+00 1.0416629378649866e+01 1.6491463363450226e+01 1 0 0
3327 1 2.5261803483881749e+01 2.6938141264046309e+00 3.3183125398730469e+00 0 1 0
1042 1 2.2830861638307002e+01 1.7559750040663520e+01 1.0702540293026228e+00 0 0 1
462 1 9.7530054847160741e-01 3.0958209097323375e-01 9.3678392643469923e+00 0 0 0
17 1 4.8610187820365853e+00 2.5521297014335190e+01 1.5080971825393480e+01 0 0 0
1041 1 1.2384689099627906e+01 1.5433089074030908e+01 1.7022272332992863e+01 0 0 0
621 1 1.4792106977848414e+00 1.2997099634274674e+00 1.8585810722497946e+01 0 0 0
1502 1 2.5530280457670941e+01 1.1171963170586629e+01 2.2877053810669445e+01 0 1 0
2213 1 7.0741353545842971e+00 2.7736359522598968e+00 1.9117751415094070e+01 1 0 0
430 1 2.3404366121054792e+01 2.4360628169266172e+00 2.2518784887045680e+01 0 0 0
3560 1 1.0748163923503864e+00 1.0536251460719257e+01 2.5905285807810031e+01 1 0 0