
# Create simulation box and atoms
lattice		    sc 1
Lattice spacing in x,y,z = 1 1 1
region 		    all block 0 51.42 0 51.42 0 51.42 units box
create_box 	    1 all
Created orthogonal box = (0 0 0) to (51.42 51.42 51.42)
  2 by 2 by 3 MPI processor grid

create_atoms	1 random 4457 ${SEED} all
create_atoms	1 random 4457 10926 all
Created 4457 atoms
  create_atoms CPU = 0.000440359 secs

mass		    1 18.15

# Define potential

pair_style 	    sw
pair_coeff	    * * mW_real.sw mW
Reading potential file mW_real.sw with DATE: 2019-02-27

# Run minimization

minimize 	    1.0e-8 1.0e-8 10000 1000
WARNING: Using 'neigh_modify every 1 delay 0 check yes' setting during minimization (../min.cpp:168)
Neighbor list info ...
  update every 1 steps, delay 0 steps, check yes
  max neighbors/atom: 2000, page size: 100000
  master list distance cutoff = 6.3065
  ghost atom cutoff = 6.3065
  binsize = 3.15325, bins = 17 17 17
  1 neighbor lists, perpetual/occasional/extra = 1 0 0
  (1) pair sw, perpetual
      attributes: full, newton on
      pair build: full/bin/atomonly
      stencil: full/bin/3d
      bin: standard
Per MPI rank memory allocation (min/avg/max) = 4.225 | 4.227 | 4.23 Mbytes
Step Temp E_pair E_mol TotEng Press 
       0            0    2416525.7            0    2416525.7    1750270.2 
     723            0   -50289.651            0   -50289.651   -1239.7011 
Loop time of 1.97736 on 12 procs for 723 steps with 4457 atoms

98.9% CPU use with 12 MPI tasks x no OpenMP threads

Minimization stats:
  Stopping criterion = max force evaluations
  Energy initial, next-to-last, final = 
         2416525.74157     -50288.6628483     -50289.6508967
  Force two-norm initial, final = 1.25989e+07 6.86647
  Force max component initial, final = 6.29196e+06 1.99605
  Final line search alpha, max atom move = 0.0388461 0.077539
  Iterations, force evaluations = 723 1000

MPI task timing breakdown:
Section |  min time  |  avg time  |  max time  |%varavg| %total
---------------------------------------------------------------
Pair    | 1.3452     | 1.617      | 1.843      |  12.9 | 81.78
Neigh   | 0.025732   | 0.028471   | 0.030043   |   0.7 |  1.44
Comm    | 0.066067   | 0.29478    | 0.5676     |  30.4 | 14.91
Output  | 0          | 0          | 0          |   0.0 |  0.00
Modify  | 0          | 0          | 0          |   0.0 |  0.00
Other   |            | 0.03712    |            |       |  1.88

Nlocal:    371.417 ave 387 max 349 min
Histogram: 3 0 0 2 0 0 1 1 1 4
Nghost:    1054.17 ave 1066 max 1040 min
Histogram: 1 0 1 1 1 3 3 0 0 2
Neighs:    0 ave 0 max 0 min
Histogram: 12 0 0 0 0 0 0 0 0 0
FullNghs:  12022.5 ave 12969 max 10893 min
Histogram: 2 1 1 1 0 1 1 1 1 3

Total # of neighbors = 144270
Ave neighs/atom = 32.3693
Neighbor list builds = 42
Dangerous builds = 0

# Create Cavity with Hard sphere "indent" potential

region		    cavity sphere 25.71 25.71 25.71 13.8 side in
delete_atoms	    region cavity
Deleted 368 atoms, new total = 4089
fix 		    5 all indent 10.0 sphere 25.71 25.71 25.71 13.8

# Equilibration of molecular water

# Add velocity/set timestep

velocity	    all create ${TEMP} ${SEED} rot yes dist gaussian
velocity	    all create 215 ${SEED} rot yes dist gaussian
velocity	    all create 215 10926 rot yes dist gaussian
timestep	    5.0

# Define output

compute			1 all msd
thermo	    	50
thermo_style	custom step temp press vol etotal ke pe c_1[4]

# Neighbor lists

neigh_modify    delay 0 every 1 check yes

# Set fixes

fix             1 all momentum 10 linear 1 1 1 rescale
fix             2 all nve
fix             3 all temp/csvr ${TEMP} ${TEMP} 500.0 ${SEED}
fix             3 all temp/csvr 215 ${TEMP} 500.0 ${SEED}
fix             3 all temp/csvr 215 215 500.0 ${SEED}
fix             3 all temp/csvr 215 215 500.0 10926
fix             4 all press/berendsen iso ${PRES} ${PRES} 1000.0 modulus 20000
fix             4 all press/berendsen iso 1.0 ${PRES} 1000.0 modulus 20000
fix             4 all press/berendsen iso 1.0 1.0 1000.0 modulus 20000

# Run 1 ns equilibration

dump		    1 all atom 2000 ${DIR}/eq.${NAME}-${TEMP}.dump
dump		    1 all atom 2000 run_3/eq.${NAME}-${TEMP}.dump
dump		    1 all atom 2000 run_3/eq.hardcavity_freeze_nvt_3-${TEMP}.dump
dump		    1 all atom 2000 run_3/eq.hardcavity_freeze_nvt_3-215.dump

reset_timestep  0

run	            200000
Per MPI rank memory allocation (min/avg/max) = 4.49 | 4.492 | 4.495 Mbytes
Step Temp Press Volume TotEng KinEng PotEng c_1[4] 
       0          215   -458.98506    135955.32   -42957.026    2619.8936    -45576.92            0 
      50    136.78318   -352.03652    135784.37   -42397.409    1666.7784   -44064.187   0.22439025 
     100    151.44949   -216.13232    135370.29   -41961.766    1845.4955   -43807.262   0.40977648 
     150      162.463   -57.367175    135091.73   -41642.569    1979.7012    -43622.27   0.58537295 
     200    174.03394   -35.613996    134955.48   -41379.766    2120.6995   -43500.466   0.73957366 
     250     182.0835   -42.926325    134823.81   -41194.237    2218.7878   -43413.025   0.93173123 
     300     190.9613   -238.49295    134592.91   -40994.442    2326.9687    -43321.41    1.1245706 
     350    195.19559   -142.64958    134380.94   -40915.712    2378.5659   -43294.278    1.3063718 
     400    195.38259    44.698587    134304.32   -40803.422    2380.8446   -43184.267     1.535595 
     450    198.56225   -27.712934    134294.02   -40745.651    2419.5906   -43165.242    1.7501597 
     500    207.04178   -47.583898    134101.34   -40666.669    2522.9182   -43189.587     1.903236 
     550    209.66193   -11.768263    133926.77   -40624.334    2554.8462    -43179.18    2.1064932 
     600     208.5776    -104.4718    133862.07   -40565.927    2541.6331    -43107.56    2.2886164 
     650    214.14383    40.076354    133668.31   -40577.686    2609.4606   -43187.147     2.498034 
     700    212.77171    9.2055639    133639.18   -40529.753    2592.7406   -43122.494     2.714507 
     750    208.23683   -188.01611    133462.25   -40553.179    2537.4806    -43090.66    2.8829305 
     800    210.66409   -28.554361    133343.43   -40559.889    2567.0581   -43126.947    3.0489473 
     850    214.09751   -90.892628     133188.9   -40499.271    2608.8963   -43108.167     3.296852 
     900    215.53509   -139.13145    133041.07    -40491.08     2626.414   -43117.494    3.5118181 
     950    216.94715    -68.25219    132881.46   -40473.657    2643.6207   -43117.277    3.7057088 
    1000    213.34538   -22.276127    132959.92   -40460.198    2599.7311    -43059.93    3.8597272 
    1050    215.20395    59.260103    132925.41   -40528.566    2622.3788   -43150.945    4.0275272 
    1100    218.26922   -119.82293    132848.52   -40489.344    2659.7308   -43149.074    4.2291166 
    1150     216.9468    134.17136    132809.35   -40508.529    2643.6164   -43152.146    4.4066664 
    1200    217.07662    86.307523    132886.51   -40529.784    2645.1983   -43174.983    4.5456891 
    1250    215.39526   -42.349313    132856.22   -40472.332    2624.7101   -43097.042    4.7498866 
    1300    215.67745    25.387332    132757.83   -40474.078    2628.1486   -43102.226     4.873648 
    1350    214.44311   -86.255701    132662.49   -40477.507    2613.1075   -43090.614    5.0436779 
    1400    211.95826    67.030722    132559.83   -40562.817    2582.8283   -43145.646    5.2812786 
    1450    213.53731    16.149245    132495.95   -40568.649    2602.0699   -43170.718    5.4403399 
    1500    210.10472   -51.709188    132433.11   -40604.404    2560.2418   -43164.645    5.6230057 
    1550    213.51861   -191.92143    132205.77   -40623.628     2601.842    -43225.47    5.7918913 
    1600    216.35828   -37.500336    132172.64   -40572.055     2636.445     -43208.5    5.9912861 
    1650    217.49726    117.89317    132241.75   -40495.259     2650.324   -43145.583    6.1795088 
    1700    216.29118   -18.251502    132169.69   -40497.717    2635.6274   -43133.344    6.4206898 
    1750    215.58144     35.57115    132111.59   -40560.225    2626.9787   -43187.204    6.5799026 
    1800    215.60969    10.927225    132113.82     -40574.8     2627.323   -43202.123    6.7185125 
    1850    214.21941   -82.841146    132042.08   -40618.104    2610.3817   -43228.486    6.9139878 
    1900    212.87805   -41.880536     132005.9   -40623.988    2594.0364   -43218.024    7.0872331 
    1950    212.34356    70.602607    132088.22   -40632.779    2587.5234   -43220.303    7.2701689 
    2000    215.24508   -48.370693    132092.53   -40587.218      2622.88   -43210.098    7.3804527 
    2050    218.79522    50.873588     132114.2   -40529.888    2666.1405   -43196.029    7.5140496 
    2100    218.96034    36.790293    132185.11   -40512.655    2668.1526   -43180.807    7.6996929 
    2150    214.25468   -208.29221    131964.75   -40552.411    2610.8115   -43163.222    7.9028296 
    2200    216.74821     100.6603    131966.27   -40585.006    2641.1965   -43226.203    8.0473811 
    2250     216.5885   -45.433478     132026.2   -40553.938    2639.2503   -43193.189     8.272072 
    2300    218.69719    26.194065    131975.67    -40488.81    2664.9458   -43153.756    8.5051354 
    2350     215.3766    40.036337    131869.74   -40509.236    2624.4827   -43133.718    8.7258044 
    2400    221.03388   -16.011084    132073.13   -40549.646    2693.4197   -43243.066    8.8644525 
    2450    217.90051   -77.342342    131976.56   -40575.264    2655.2379   -43230.502    9.0627108 
    2500    218.31328   -146.16943    131922.17   -40542.659    2660.2677   -43202.926    9.2946253 
    2550    219.00986   -287.53724    131629.89   -40576.535    2668.7559   -43245.291    9.5762393 
    2600    214.27322   -55.669779    131429.47   -40592.852    2611.0373    -43203.89    9.7754808 
    2650    216.98227    200.96092    131480.16   -40585.016    2644.0487   -43229.064    9.8205971 
    2700    215.85505    200.20584    131705.43   -40613.735    2630.3129   -43244.048    9.9520112 
    2750    213.77818     11.34735    131762.61   -40646.632     2605.005   -43251.637    9.9677255 
    2800    217.10481   -97.808756    131824.01   -40641.454    2645.5419   -43286.996     10.02431 
    2850    215.80582    109.44765    131834.85   -40641.769    2629.7129   -43271.482    10.192978 
    2900    213.95587   -192.78937    131706.15   -40648.441    2607.1703   -43255.611    10.359679 
    2950    218.03889   -9.2745431    131563.13   -40632.505    2656.9241   -43289.429    10.483906 
    3000    212.93675   -80.099869    131537.79   -40639.337    2594.7517   -43234.089    10.616103 
    3050     211.1502    70.089109    131491.08   -40689.588    2572.9816   -43262.569    10.759798 
    3100    213.48246     54.50241    131655.96   -40685.586    2601.4015   -43286.987    10.889994 
    3150    215.79222   -48.768785    131559.61   -40663.902    2629.5472   -43293.449     10.99573 
    3200    212.57193    123.44965    131664.21   -40704.913    2590.3062   -43295.219    11.108281 
    3250    212.48761   -3.0231392    131746.73   -40706.644    2589.2787   -43295.922    11.276035 
    3300    215.97986     23.54257    131847.88   -40709.185    2631.8337   -43341.019    11.458598 
    3350    214.66138    45.545887    131921.89     -40761.6    2615.7673   -43377.367    11.680239 
    3400    214.76299    10.581447    131881.16   -40810.163    2617.0055   -43427.168    11.811401 
    3450    210.12936    41.939463    131843.89   -40810.256    2560.5422   -43370.798     11.92087 
    3500    211.30617   0.48040021    131857.23    -40823.37    2574.8823   -43398.253    12.037156 
    3550    212.38795    21.619601    131923.32   -40795.429    2588.0643   -43383.493    12.148337 
    3600    211.50526   -26.971907    131923.41   -40806.962    2577.3082    -43384.27    12.254135 
    3650    215.19189   -97.307441     131893.5   -40786.097    2622.2319   -43408.329    12.327324 
    3700    211.52205    87.758141    131862.59   -40760.149    2577.5128   -43337.661    12.478344 
    3750     215.5806    187.77439    131867.26   -40741.296    2626.9685   -43368.264    12.611553 
    3800    217.72151    126.38786    132034.02   -40769.759    2653.0566   -43422.815      12.8164 
    3850    209.29399    97.714363    132323.04   -40760.519    2550.3627   -43310.882    12.972479 
    3900    215.24743   -69.107646    132360.82   -40730.717    2622.9086   -43353.626    13.077989 
    3950    214.36091    97.646441    132522.39    -40685.75    2612.1059   -43297.856    13.212285 
    4000    214.26424    72.247738    132558.13   -40686.814     2610.928   -43297.742     13.42427 
    4050    214.81203   -304.20665    132366.47   -40661.983     2617.603   -43279.586    13.593936 
    4100    215.87047   -40.443891    132246.06   -40680.809    2630.5007    -43311.31    13.661939 
    4150    216.17292     43.48793    132220.89   -40654.849    2634.1862   -43289.036    13.789203 
    4200    211.86857    100.76663     132214.6   -40696.201    2581.7353   -43277.937    13.915197 
    4250    212.97022    43.335155    132194.28   -40762.444    2595.1595   -43357.603    13.974826 
    4300    217.09044   -42.599711    132377.86   -40745.885    2645.3667   -43391.252    14.110327 
    4350     214.2827   -160.64918    132224.17    -40796.68    2611.1529   -43407.833    14.262023 
    4400    213.48853    159.69936    132310.33   -40810.064    2601.4755   -43411.539    14.518921 
    4450    209.95302    78.926587    132413.19   -40812.124    2558.3933   -43370.517    14.666748 
    4500    210.10318    -13.61729    132305.75   -40772.698    2560.2231   -43332.921    14.827612 
    4550     214.3928   -59.475519    132343.94   -40770.249    2612.4945   -43382.743    15.079179 
    4600    211.08845    27.904723    132184.38     -40743.9    2572.2292   -43316.129    15.239552 
    4650    215.08538    61.057214    132267.62   -40766.109     2620.934   -43387.043    15.369776 
    4700    214.43321    78.832462    132356.02   -40730.658     2612.987   -43343.645    15.441804 
    4750    217.01777   -105.89336    132326.19    -40707.76    2644.4812   -43352.241    15.515552 
    4800    214.82116    5.4854483    132365.67   -40694.969    2617.7143   -43312.683     15.63042 
    4850    213.84377   -45.316152    132349.99   -40729.747    2605.8043   -43335.552    15.683188 
    4900    211.43934   -73.916102    132358.99     -40733.5     2576.505   -43310.005    15.677755 
    4950    210.57568   -187.20743    132197.32   -40739.339    2565.9808    -43305.32     15.78818 
    5000    216.12094   -23.819661    132223.46   -40753.308    2633.5529    -43386.86    16.002371 
    5050    215.47439    -13.43405    132242.51   -40713.757    2625.6743   -43339.431    16.183491 
    5100    213.72364    5.0563851    132350.54   -40649.585    2604.3405   -43253.925     16.27844 
    5150    213.06153    100.51838    132492.41   -40684.094    2596.2722   -43280.367    16.441978 
    5200    216.10662   -30.614163    132479.48   -40654.908    2633.3784   -43288.287    16.600993 
    5250    213.64919    -80.58461    132373.04   -40670.807    2603.4332    -43274.24    16.622537 
    5300    217.12736   -94.780033    132318.59   -40689.295    2645.8167   -43335.112    16.730792 
    5350     213.3109    7.2258646    132275.58   -40677.122     2599.311   -43276.433    16.895881 
    5400    212.74606   -48.870884     132193.9   -40709.703     2592.428   -43302.131    17.111905 
    5450    214.11335    92.136332     132443.9   -40678.642    2609.0892   -43287.732    17.361207 
    5500    214.48088   -5.0527638    132427.92   -40716.308    2613.5678   -43329.876    17.556012 
    5550    213.32781   -17.031386    132417.55   -40730.309    2599.5171   -43329.826    17.742408 
    5600    213.60908    11.131448    132241.27   -40727.667    2602.9444   -43330.611    17.741206 
    5650    216.66939   -22.780891    132252.75   -40694.373    2640.2361   -43334.609    17.842325 
    5700    216.33399   -31.191577    132158.71   -40675.647     2636.149   -43311.796    18.055004 
    5750    216.50367   -29.243713    132143.92   -40684.206    2638.2167   -43322.422    18.178892 
    5800    215.62646    -124.3796    131965.74   -40693.176    2627.5274   -43320.703    18.272054 
    5850    216.27333    158.61851    131975.66   -40650.696    2635.4097   -43286.106    18.449465 
    5900    218.02846   -32.493976    132048.94   -40676.894    2656.7971   -43333.691    18.533887 
    5950    216.24491    98.391143    132226.62   -40684.378    2635.0635   -43319.441    18.650041 
    6000    214.66264    61.568568     132141.1    -40665.46    2615.7827   -43281.243    18.871006 
    6050    212.92894    61.911789    132193.65   -40720.985    2594.6566   -43315.642     18.96121 
    6100    214.25049    -25.48368    132245.73   -40707.102    2610.7603   -43317.862    19.198131 
    6150    212.25727    54.420362     132194.8   -40705.326    2586.4719   -43291.798    19.523376 
    6200     211.8929   -82.211762    132037.09   -40705.941    2582.0318   -43287.973     19.69816 
    6250    212.83377    61.599852    132012.67   -40702.495    2593.4969   -43295.992    19.801596 
    6300    216.62755   -11.378428    131833.65   -40751.611    2639.7261   -43391.337    19.858998 
    6350    212.16116    77.751352    131895.73   -40717.229    2585.3007    -43302.53    19.913496 
    6400    215.22013   -79.343334    131856.59   -40666.876     2622.576   -43289.452    20.124602 
    6450    214.95121    264.04639    131892.31   -40747.773    2619.2991   -43367.073    20.353165 
    6500    215.27967     84.01792    132113.67   -40719.337    2623.3015   -43342.638    20.585353 
    6550    214.11482   -271.96325    131930.54   -40748.297    2609.1072   -43357.404    20.814406 
    6600    212.62818    24.806495     131808.6   -40733.897    2590.9917   -43324.889    20.944512 
    6650    211.46821     3.800207    131872.43    -40722.23    2576.8567   -43299.087    21.056005 
    6700    210.68289    14.707942    131911.18   -40714.401    2567.2872   -43281.688    21.238439 
    6750    214.97195    60.424879     131958.8   -40688.611    2619.5518   -43308.163    21.285303 
    6800    211.62485    22.284857    132110.77   -40677.303    2578.7656   -43256.069    21.378246 
    6850    217.82852   -64.382787    132127.97   -40657.058    2654.3606   -43311.418    21.480159 
    6900    213.46761   -208.74293    131958.13   -40684.142    2601.2205   -43285.362    21.723797 
    6950    213.19108     144.1281    131950.71   -40697.012    2597.8509   -43294.863    21.860015 
    7000     218.7009   -139.16307    132050.97   -40587.934    2664.9911   -43252.925    22.051055 
    7050    221.06097    115.94392    132060.94   -40635.514    2693.7499   -43329.264    22.155672 
    7100    217.73803   -35.944481    132072.76   -40640.691     2653.258   -43293.949     22.27962 
    7150    212.06919    28.305928    132107.98   -40734.035    2584.1801   -43318.215    22.368483 
    7200    213.15175    106.33627    132175.69   -40710.173    2597.3717   -43307.544    22.529425 
    7250    216.39582    159.63753    132292.48   -40685.652    2636.9024   -43322.554    22.768504 
    7300    216.81824   -103.04415    132240.64   -40714.071    2642.0499   -43356.121    22.841408 
    7350     214.6596   -180.38881    132033.34   -40723.555    2615.7456     -43339.3    22.935762 
    7400    212.04867   -39.474366     131879.4   -40725.554      2583.93   -43309.484    22.982365 
    7450    214.09116    19.341829     131799.8   -40745.425    2608.8188   -43354.244    23.163326 
    7500    219.53892    89.745249     132020.8   -40682.367    2675.2029    -43357.57    23.392089 
    7550    216.84207    49.560434    132096.63   -40704.586    2642.3402   -43346.927    23.453572 
    7600    214.26789   -51.833676    132049.38   -40746.216    2610.9724   -43357.188    23.643651 
    7650    214.20951   -64.442732    132035.34    -40722.05    2610.2611   -43332.312    23.823214 
    7700    210.79219    85.646414    131988.93   -40740.949    2568.6191   -43309.568    23.797885 
    7750    210.66872    36.652316    132050.27   -40766.786    2567.1146   -43333.901    24.023617 
    7800    211.74291    120.28529    132226.12   -40738.852    2580.2041   -43319.056    24.304147 
    7850    214.23181    124.33695    132263.26   -40781.315    2610.5327   -43391.847    24.417091 
    7900    215.11886    5.3649631    132256.48   -40781.981     2621.342   -43403.323    24.485402 
    7950    215.08641   -272.09173    132183.52   -40755.717    2620.9465   -43376.663    24.705651 
    8000    212.39826   -32.682665    131980.43   -40723.615      2588.19   -43311.805    24.935301 
    8050     214.9028     64.44919    131848.91   -40725.438    2618.7091   -43344.147    25.113949 
    8100    212.66327   -56.142144    131904.64   -40746.821    2591.4193    -43338.24    25.286377 
    8150    209.62172     24.52036    131780.06   -40758.633    2554.3563    -43312.99    25.385038 
    8200     214.3034   -28.178277    131813.78   -40724.171    2611.4052   -43335.576    25.376877 
    8250     212.0735     -25.0387    131684.68   -40710.372    2584.2326   -43294.604    25.496871 
    8300    215.11021    83.416085    131737.15   -40723.041    2621.2366   -43344.278    25.663591 
    8350     212.1367    8.9111077    131737.49   -40760.997    2585.0026       -43346    25.780828 
    8400    210.90765   -147.46042    131873.13   -40785.227     2570.026   -43355.253    26.061605 
    8450    212.10256    57.774202    131951.69   -40826.974    2584.5867    -43411.56    26.102793 
    8500    211.39027    29.331648     132108.9   -40845.187     2575.907   -43421.094    26.315585 
    8550    213.29741    9.4078594    132053.67   -40798.224    2599.1466   -43397.371    26.621153 
    8600    215.84094    39.662005    132026.92   -40739.672    2630.1409   -43369.813     26.77391 
    8650    212.15178   -9.6454175     131965.1   -40733.793    2585.1865    -43318.98    27.029221 
    8700    214.26589    19.148737    132126.58   -40760.392     2610.948    -43371.34    27.120849 
    8750    217.24477    98.273178    132059.18   -40803.962    2647.2474   -43451.209    27.332236 
    8800    211.59573    -18.84304    132081.84   -40792.759    2578.4106    -43371.17    27.318922 
    8850     211.2877   -62.482292     132017.8   -40808.653    2574.6571    -43383.31    27.444045 
    8900    212.92039   -37.223218    131923.13   -40775.437    2594.5524   -43369.989    27.532506 
    8950    214.92958    100.67775    132083.11   -40724.966    2619.0355   -43344.002    27.657808 
    9000     214.6774    6.1974869    132110.82   -40737.556    2615.9625   -43353.519    27.690027 
    9050    213.76206   -123.43724    132094.72   -40778.235    2604.8085   -43383.044    27.895547 
    9100    213.38114   -207.66157    131780.62   -40816.892    2600.1668   -43417.059    28.155972 
    9150    213.78584    37.565822     131625.4   -40818.071    2605.0984    -43423.17    28.244932 
    9200    211.67817    62.660342    131795.77   -40789.317    2579.4153   -43368.732     28.11829 
    9250    214.86567    72.936013    132027.52   -40724.726    2618.2566   -43342.983    28.216669 
    9300     216.1105   -14.343465     132049.1   -40755.945    2633.4256   -43389.371    28.415998 
    9350    206.58559    47.552449    132053.54   -40766.646    2517.3594   -43284.005    28.515771 
    9400    216.14514   -212.96185    132055.05   -40802.626    2633.8477   -43436.473    28.810648 
    9450    209.47566   -22.087349    131855.25   -40816.937    2552.5764   -43369.513    29.022531 
    9500    213.52844    203.48694    131909.66   -40782.377    2601.9618   -43384.339    29.103089 
    9550    213.35798   -108.50858    131972.91   -40762.311    2599.8846   -43362.196    29.183421 
    9600    214.07268   -118.37336    132079.88   -40800.345    2608.5936   -43408.939    29.409163 
    9650    211.22275    33.205307     132096.3   -40832.046    2573.8657   -43405.911    29.524993 
    9700    215.78121     71.47865    132132.88   -40811.982    2629.4131   -43441.395    29.557148 
    9750      211.244    90.413256     132151.2   -40811.802    2574.1246   -43385.926    29.718486 
    9800    216.61364    10.561021    132086.67    -40745.77    2639.5566   -43385.326    29.887148 
    9850    213.17065   -24.189863    132034.72   -40772.279     2597.602   -43369.881    29.935497 
    9900    217.35086    185.13712    132046.61   -40753.258    2648.5401   -43401.798    30.010058 
    9950    215.10829   -64.505172    131983.22   -40759.124    2621.2131   -43380.337    30.010649 
   10000    214.90651   -78.586499    131934.17   -40764.927    2618.7543   -43383.681    30.157632 
   10050    214.44044    92.066232    132026.57   -40752.717     2613.075   -43365.792    30.259669 
   10100    215.66417   -63.000075    132058.89   -40698.307    2627.9869   -43326.293    30.291543 
   10150    213.73428   -22.821774    132058.37   -40750.419      2604.47   -43354.889    30.472524 
   10200    211.90747   -1.8969117    132072.16   -40747.245    2582.2094   -43329.454    30.556987 
   10250    213.52312    80.454371    132097.13   -40745.145     2601.897   -43347.043    30.893392 
   10300     214.6479   -217.66713    132107.33   -40710.864     2615.603   -43326.467    30.982063 
   10350    213.77005    27.154229    132065.19   -40730.054     2604.906    -43334.96    30.955402 
   10400    214.05761   -68.958789    132173.86   -40739.631      2608.41   -43348.041    31.046553 
   10450    214.73403    56.962414    132243.04   -40759.318    2616.6526    -43375.97    31.285162 
   10500    212.82055    -151.9086    132223.91   -40770.938    2593.3357   -43364.274    31.452762 
   10550    215.08171   -6.5671237    132195.91   -40785.355    2620.8893   -43406.245    31.472972 
   10600    216.19857     80.01652    132160.14   -40752.408    2634.4988   -43386.907    31.635513 
   10650    216.95311   -51.377066    132280.13   -40749.114    2643.6933   -43392.807    31.797126 
   10700    217.90774    90.763065    132211.48   -40747.882     2655.326   -43403.208    31.810928 
   10750    220.98914   -80.624115    132191.61   -40773.645    2692.8746    -43466.52    31.779059 
   10800    214.54572   -23.511784    132258.19   -40797.366    2614.3579   -43411.724    31.882175 
   10850    216.96642    75.018617    132315.24    -40798.61    2643.8555   -43442.466    31.982477 
   10900    217.91716   -17.275947    132406.08   -40812.459    2655.4407   -43467.899    32.061577 
   10950    217.74057   -25.859837    132332.56   -40769.212    2653.2889   -43422.501    32.202491 
   11000    216.83035    52.658918    132375.88   -40780.896    2642.1974   -43423.093    32.268951 
   11050    215.60722    30.026125    132498.62   -40803.732    2627.2928   -43431.025    32.387943 
   11100    214.64088    139.82319    132498.74   -40771.014    2615.5175   -43386.531     32.43872 
   11150    219.41656   -42.701645    132549.75   -40754.415    2673.7118   -43428.127    32.636031 
   11200    215.35231   -99.648379    132555.59   -40798.099    2624.1867   -43422.285    32.811216 
   11250    213.94561   -96.936202    132382.55   -40788.997    2607.0452   -43396.042    32.969707 
   11300    214.90961   -125.70241    132301.75   -40791.078    2618.7921    -43409.87    33.015105 
   11350    215.03608    13.867428    132241.42   -40761.025    2620.3333   -43381.358    33.153133 
   11400    215.56906    164.28972    132134.33   -40735.736    2626.8278   -43362.564    33.219166 
   11450     218.0215    21.067202    132345.74   -40728.123    2656.7123   -43384.835    33.468492 
   11500    220.52624   -89.213119    132396.31   -40750.115    2687.2339   -43437.348    33.530064 
   11550    212.46546   -71.342499    132338.04   -40769.299    2589.0088   -43358.307    33.517467 
   11600    217.84176    129.60757    132283.02   -40797.967     2654.522   -43452.489    33.614618 
   11650    215.88491    19.900434    132409.59   -40759.731    2630.6767   -43390.408    33.647816 
   11700    212.64603    8.0676805    132350.39   -40781.427    2591.2092   -43372.636    33.731399 
   11750    209.60271    41.618229    132303.01   -40857.849    2554.1246   -43411.974    34.074273 
   11800    206.43676   -108.31882    132298.33   -40890.386    2515.5457   -43405.932    34.438395 
   11850     212.7998    17.721897    132305.94   -40836.483    2593.0829   -43429.566    34.576136 
   11900    212.03187   -27.502447    132161.35   -40793.497    2583.7252   -43377.222    34.606089 
   11950    214.82622   -57.817834    132165.23   -40748.275     2617.776   -43366.051    34.639725 
   12000    213.35865   -4.4771289    132119.28   -40728.253    2599.8928   -43328.145     34.66266 
   12050     211.2956   -65.731281    131984.59   -40759.959    2574.7534   -43334.712    34.861997 
   12100    216.68822    2.2588449    132070.74   -40733.574    2640.4654   -43374.039    34.982711 
   12150    213.73484   -27.911512    132216.13   -40708.871    2604.4769   -43313.348    35.126562 
   12200    217.69715    92.724584    132326.19   -40669.423    2652.7598   -43322.183     35.11631 
   12250    221.15701    107.09419    132418.02   -40650.658    2694.9201   -43345.578    35.290176 
   12300     212.5767   -19.929931    132415.92   -40715.192    2590.3643   -43305.556    35.457045 
   12350    212.23754    -116.2821     132254.8   -40739.697    2586.2315   -43325.929    35.448183 
   12400    212.04479   -24.789473    132177.46   -40732.686    2583.8828   -43316.568      35.5672 
   12450     212.6601   -149.75768    132044.54   -40659.465    2591.3805   -43250.846    35.613609 
   12500    216.12114   -46.883064    132016.56   -40665.301    2633.5552   -43298.856    35.913527 
   12550    212.86453    147.93428    131966.64   -40661.958    2593.8717    -43255.83    36.174986 
   12600    218.25338    117.31517     132075.4   -40714.525    2659.5378   -43374.063    36.289049 
   12650    213.95118     47.42102    132106.39   -40738.322    2607.1131   -43345.435    36.326027 
   12700    212.01348   -121.80885    131994.33   -40717.522    2583.5011   -43301.023    36.621072 
   12750    217.26607   -28.443059    131880.95   -40667.268    2647.5068   -43314.775    36.764476 
   12800    213.36124   -48.820978    131915.51   -40671.807    2599.9244   -43271.732    36.919902 
   12850    214.19244    81.267956    131927.01   -40605.337     2610.053    -43215.39    36.953629 
   12900    214.38628    3.2544364    132031.21   -40668.468    2612.4151   -43280.883    37.086411 
   12950    214.35144    69.267442    131892.76   -40652.529    2611.9905   -43264.519    37.110813 
   13000    217.15895    96.238814    131967.86   -40629.252    2646.2015   -43275.454    37.281955 
   13050     217.1042    30.865263    132008.64   -40593.283    2645.5344   -43238.818    37.452568 
   13100    220.94348   -44.683643    131907.89   -40643.769    2692.3181   -43336.087    37.398203 
   13150    217.91502    27.014381    131979.72   -40657.803    2655.4146   -43313.218    37.616792 
   13200    215.34063    -61.06253    132024.34   -40672.424    2624.0444   -43296.469    37.775513 
   13250    216.14959   -122.73722    131866.34   -40658.072    2633.9019   -43291.974    37.814044 
   13300    217.40269    80.401853    131893.04   -40672.541    2649.1716   -43321.713    38.131929 
   13350    215.64392    14.886408    131908.31   -40650.336    2627.7401   -43278.076    38.179157 
   13400    213.60655    112.70643     132043.7   -40647.053    2602.9136   -43249.966    38.262742 
   13450    218.98791   -180.65743    132049.66   -40624.169    2668.4884   -43292.658    38.439934 
   13500    214.07465    100.47442    131845.77   -40589.775    2608.6177   -43198.392    38.543167 
   13550    216.48328    1.4604392    131714.99   -40639.677    2637.9681   -43277.645    38.684088 
   13600     216.9606    105.83416    131746.52   -40665.434    2643.7845   -43309.219    38.793552 
   13650    218.58814    153.79162    131800.53   -40610.578     2663.617   -43274.195     38.99952 
   13700    214.08011     92.69304    132050.72   -40600.554    2608.6842   -43209.238    39.301993 
   13750    213.04218    28.012391    132022.48   -40646.154    2596.0365   -43242.191    39.507988 
   13800    215.16903    96.800377    132016.05   -40633.454    2621.9533   -43255.408    39.568581 
   13850    215.31817    77.569848    132014.72   -40681.919    2623.7707    -43305.69    39.626162 
   13900    214.60637   -5.2297544    132082.89   -40667.915     2615.097   -43283.012    39.912531 
   13950    212.92199    82.576714    131895.41    -40695.58    2594.5719   -43290.152    40.063832 
   14000    213.87959   -45.468173    131870.18   -40647.072    2606.2408   -43253.313    40.219233 
   14050    216.57224   -148.34317    131675.33   -40657.756    2639.0521   -43296.808    40.466559 
   14100    216.76242   -71.395951    131712.38   -40655.978    2641.3696   -43297.347    40.454731 
   14150    217.12437   -100.77113    131708.51    -40669.92    2645.7802     -43315.7     40.67738 
   14200    211.85635   -82.466953    131549.97   -40669.523    2581.5865    -43251.11     40.63337 
   14250    216.54442   -187.38715    131459.08   -40666.306    2638.7132   -43305.019    40.801895 
   14300    215.83643    103.35365    131408.67   -40646.418    2630.0859   -43276.504    41.034598 
   14350    217.79234    52.195674    131472.62   -40628.754    2653.9197   -43282.674    41.234931 
   14400    216.87161   -44.081955    131423.13    -40620.69    2642.7002    -43263.39    41.380565 
   14450    217.90857   -153.78553    131400.57   -40596.992     2655.336   -43252.328    41.617371 
   14500    216.17986    10.660331    131362.18   -40594.527    2634.2708   -43228.798    41.620717 
   14550    213.68125    74.827516    131453.86   -40598.958    2603.8238   -43202.782     41.65797 
   14600    215.80415    71.177974    131457.77   -40589.123    2629.6925   -43218.815    41.759227 
   14650    216.52638    48.997732    131606.71   -40570.025    2638.4934   -43208.518    41.926565 
   14700    214.54047    139.60248    131566.22   -40549.198    2614.2939   -43163.492    42.120925 
   14750    217.15686   -19.310181    131613.81   -40563.963    2646.1761   -43210.139    42.249301 
   14800    215.02941    7.9373327    131655.45   -40561.815    2620.2519   -43182.067    42.605327 
   14850     213.9043   -148.69695    131556.88   -40635.889    2606.5418   -43242.431    42.712377 
   14900    212.80404   -18.412369    131478.45   -40654.531    2593.1345   -43247.665    42.739894 
   14950    219.80899   -39.935293    131389.63   -40589.324    2678.4938   -43267.817    42.728206 
   15000    216.18057    217.99726    131506.02   -40644.196    2634.2794   -43278.475     42.87962 
   15050    212.61249    88.091795    131616.06   -40606.484    2590.8004   -43197.284    43.124574 
   15100    218.06257     45.89319    131611.06   -40564.451    2657.2126   -43221.663     43.27573 
   15150    213.56251   -103.93336    131536.61    -40613.51    2602.3769   -43215.887    43.425107 
   15200    214.21092    58.208766    131551.75   -40629.887    2610.2782   -43240.166    43.347367 
   15250    214.62107   -58.797824    131536.47   -40587.483     2615.276   -43202.759    43.631098 
   15300    217.89117    52.718868    131514.85   -40592.764     2655.124   -43247.888    43.758424 
   15350    214.34873   -125.14003    131636.14   -40625.476    2611.9575   -43237.434    43.949979 
   15400    218.87338   -119.73049    131451.47   -40592.563    2667.0928   -43259.656    44.018448 
   15450     215.7692    7.2215676    131366.35   -40578.911    2629.2667   -43208.178    44.146788 
   15500    213.69986   -60.150929    131369.68   -40559.113    2604.0506   -43163.164    44.259357 
   15550    216.10187   -60.550007    131365.12   -40587.348    2633.3205   -43220.668    44.381375 
   15600     216.8615   -69.874347    131309.88   -40607.535     2642.577   -43250.112    44.554663 
   15650    213.09962    20.343179    131363.85   -40677.934    2596.7364    -43274.67    44.676137 
   15700    214.46889    1.0897671    131383.98   -40704.309    2613.4216   -43317.731    44.916578 
   15750    210.96036   -40.621914    131362.16   -40731.644    2570.6683   -43302.312     45.22294 
   15800    210.75926   -31.624278    131407.38   -40745.977    2568.2178   -43314.195     45.24482 
   15850    211.71602    31.735645    131525.21   -40743.441    2579.8765   -43323.317    45.447552 
   15900    210.87005    83.181333    131583.51   -40726.478    2569.5678   -43296.046    45.635207 
   15950    212.29085    15.606466     131514.2    -40693.06    2586.8811   -43279.941    45.713069 
   16000    217.87744    5.8950712    131432.45   -40665.253    2654.9568    -43320.21    45.816791 
   16050    214.34749   -11.476732    131491.31   -40689.645    2611.9424   -43301.588    45.991269 
   16100    217.18806    17.239086    131530.63   -40643.476    2646.5563   -43290.033    46.168447 
   16150    213.80791    45.926919    131674.42   -40618.503    2605.3673   -43223.871    46.440631 
   16200    215.76093  -0.56021445    131739.12   -40601.804    2629.1659    -43230.97     46.70403 
   16250    214.31665    158.26376    131893.31   -40600.942    2611.5666   -43212.509    46.988095 
   16300    217.22343   -30.475998    131884.18   -40599.896    2646.9873   -43246.883    47.109204 
   16350    212.49574      45.2778    132020.56    -40640.22    2589.3778   -43229.598    47.456812 
   16400     215.4646   -93.811818    132044.87   -40654.203     2625.555   -43279.758    47.411904 
   16450     212.3575    90.417792    132023.19   -40686.551    2587.6933   -43274.244    47.506095 
   16500    213.85646    39.543001    132077.89    -40666.25    2605.9589   -43272.209    47.559186 
   16550    217.80825    -59.74059    132067.85   -40650.937    2654.1136   -43305.051    47.680454 
   16600    212.57437   -42.627869    131996.57   -40722.984    2590.3359    -43313.32    47.875908 
   16650    213.45958    191.15407       131918   -40762.219    2601.1227   -43363.342    47.990759 
   16700    211.31636   -111.42859    132000.12   -40714.639    2575.0064   -43289.646    48.233404 
   16750    213.26921    24.600105    131914.13   -40699.248     2598.803   -43298.051    48.488631 
   16800    213.25602    102.46003    131847.69   -40696.383    2598.6422   -43295.025    48.657776 
   16850    215.12123    95.671592    131982.97   -40670.819    2621.3708    -43292.19    48.948178 
   16900    214.30687   -27.260419    132113.88   -40648.044    2611.4474   -43259.492    49.046095 
   16950     212.5401   -151.38106    131996.75   -40658.939    2589.9183   -43248.857    49.064326 
   17000    215.79223    52.801409    131920.92   -40616.329    2629.5473   -43245.876    49.268956 
   17050    211.24849   -211.07856    131719.21   -40638.169    2574.1793   -43212.348    49.458019 
   17100    217.74163    39.557442    131656.37   -40641.634    2653.3018   -43294.935    49.552229 
   17150    216.17025    27.605153    131737.75   -40620.431    2634.1537   -43254.584    49.645923 
   17200     219.2382    11.286843    131622.94   -40614.047    2671.5383   -43285.586    49.752559 
   17250    214.70764     176.3422    131645.55   -40633.816     2616.331   -43250.147    49.825607 
   17300    213.24476   -60.982343    131675.58   -40677.578    2598.5051   -43276.083    49.940136 
   17350    212.27163    105.10485    131578.49   -40710.644    2586.6469   -43297.291    50.014967 
   17400     212.0445   -98.689745    131661.34   -40672.043    2583.8792   -43255.923    50.190009 
   17450    211.89761   -40.486729    131639.38   -40668.172    2582.0892   -43250.261    50.149828 
   17500    212.95651    5.3656652    131524.37   -40700.961    2594.9925   -43295.954    50.387313 
   17550    214.25745   -28.867809    131447.51   -40647.786    2610.8452   -43258.631    50.583506 
   17600    211.90679    213.13276    131416.73   -40617.872    2582.2011   -43200.073    50.704469 
   17650     213.8254    214.94499    131577.62   -40601.333    2605.5805   -43206.913    50.995261 
   17700    219.51029    53.005462    131753.61   -40607.144    2674.8539   -43281.998    51.076163 
   17750    216.10164   -223.57358    131750.61   -40594.141    2633.3176   -43227.459    51.203551 
   17800    214.86171   -59.855971    131625.68   -40550.427    2618.2085   -43168.636    51.321534 
   17850     212.8611    100.93881    131583.66   -40572.931    2593.8299   -43166.761    51.561219 
   17900    215.39521    78.406457    131458.55   -40602.193    2624.7094   -43226.902    51.618096 
   17950    214.43229    10.243263    131395.79   -40566.439    2612.9757   -43179.414    51.715525 
   18000     215.5637   -59.761522    131295.61   -40513.535    2626.7625   -43140.298     51.80505 
   18050    218.01361    130.19463    131422.18   -40549.242    2656.6161   -43205.858    51.839076 
   18100    213.67024    43.216295     131462.4   -40544.249    2603.6897   -43147.939      52.0043 
   18150    218.99549    144.04636    131321.06   -40591.366    2668.5808   -43259.947    52.150152 
   18200    219.71522   -88.985503    131273.13   -40587.736    2677.3511   -43265.087    52.404989 
   18250    211.73688    43.248571    131253.37   -40624.716    2580.1307   -43204.846    52.763665 
   18300    213.51075    91.256366    131341.31   -40644.836    2601.7462   -43246.582    52.827014 
   18350    214.40675    118.65595     131429.4   -40624.156    2612.6645    -43236.82    52.777099 
   18400    211.52524     89.70634    131435.03   -40654.365    2577.5517   -43231.917    52.989497 
   18450    220.07737   -28.582067    131527.13   -40633.275    2681.7641   -43315.039    53.119301 
   18500    211.38669   -30.646036    131596.92   -40645.717    2575.8634    -43221.58    53.293903 
   18550    217.07943    93.433567    131610.52   -40646.323    2645.2325   -43291.555    53.571904 
   18600    214.58097   -174.48642    131561.71   -40609.799    2614.7874   -43224.586    53.849096 
   18650    213.05962   -146.30887    131517.21   -40632.061     2596.249    -43228.31    53.931318 
   18700    217.05235    69.327361    131370.02    -40578.69    2644.9026   -43223.593    54.148658 
   18750    215.51047   -129.37662    131364.68   -40613.911    2626.1139   -43240.025    54.172791 
   18800    212.19458   -93.453436     131151.1   -40643.719     2585.708   -43229.427    54.103833 
   18850    213.87591     166.9018    131129.32   -40652.673    2606.1959   -43258.869     54.20137 
   18900     213.1717   -109.19753     131202.9   -40612.782    2597.6147   -43210.397    54.363924 
   18950    219.04807    23.156268    131077.63   -40616.505    2669.2216   -43285.726    54.578549 
   19000    214.88403    124.21091    131104.17   -40620.194    2618.4805   -43238.675    54.771931 
   19050    212.46679    16.691539     131086.8    -40635.66    2589.0251   -43224.685    54.969037 
   19100    214.83817   -57.798052    131003.15   -40613.903    2617.9215   -43231.824    55.076152 
   19150    215.14475   -41.473233     130970.3   -40657.816    2621.6575   -43279.473    55.136426 
   19200    209.42562    2.0033758    130929.17   -40658.095    2551.9667   -43210.062    55.032532 
   19250    211.68964    167.14547    130913.26   -40640.557     2579.555   -43220.112    55.340415 
   19300    213.41562    127.95535    130996.05   -40631.404    2600.5871   -43231.991    55.501076 
   19350    217.93211    177.81886    131209.01   -40587.217    2655.6229    -43242.84    55.709975 
   19400    216.99161   -123.97253    131294.24   -40554.801    2644.1624   -43198.963    55.930233 
   19450    217.16452   -64.478513    131283.58   -40567.109    2646.2695   -43213.379    56.230104 
   19500    216.43368   -25.048592    131159.32    -40572.08    2637.3637   -43209.443    56.515812 
   19550    218.56663   -138.94863     131166.6   -40555.521    2663.3549   -43218.876    56.856311 
   19600    215.33064     44.51839     131153.7   -40626.258    2623.9226    -43250.18    57.171041 
   19650    208.26463   -5.8434511    131125.43    -40647.55    2537.8193    -43185.37    57.596767 
   19700    213.92753    108.33235    131240.13   -40627.181    2606.8249   -43234.006    57.842365 
   19750    215.96465    121.32475    131237.86   -40586.713    2631.6484   -43218.361    57.930174 
   19800    217.15334    186.45509    131505.27    -40523.14    2646.1332   -43169.273    58.061642 
   19850     218.7573   -54.019404    131506.95   -40511.753    2665.6783   -43177.431    58.336792 
   19900    217.61133   -145.55916    131421.19   -40539.601     2651.714   -43191.315    58.480461 
   19950    213.58696    55.758106    131340.82   -40522.912    2602.6749   -43125.587    58.615921 
   20000    216.77745     74.02592    131481.85   -40546.816    2641.5528   -43188.369    58.801782 
   20050    218.43819   -7.5916931    131445.94   -40540.158    2661.7898   -43201.947     58.79339 
   20100    216.08916   -82.281155    131384.18   -40552.728    2633.1655   -43185.893     58.87715 
   20150    217.13209    44.198748    131293.85   -40522.948    2645.8742   -43168.822    58.999243 
   20200      219.773   -40.707985    131203.45   -40558.849    2678.0552   -43236.905    59.223873 
   20250    211.63579    -40.52049    131125.89   -40569.285    2578.8989   -43148.184    59.430982 
   20300    215.01407    136.46696    131031.56   -40591.752     2620.065   -43211.817    59.681685 
   20350     221.9409     206.5528     131402.5   -40571.585    2704.4722   -43276.058    59.989518 
   20400    215.26496    9.3128819    131354.66   -40529.358    2623.1222    -43152.48    60.059411 
   20450    218.25911     80.53681    131375.32   -40507.623    2659.6077    -43167.23    60.313131 
   20500    211.50537   -37.593085    131386.91   -40545.772    2577.3096   -43123.081     60.59683 
   20550    217.16531   -93.801727    131248.21   -40567.517    2646.2791   -43213.796    60.946113 
   20600    217.49479    37.653882    131205.34   -40593.113     2650.294   -43243.407    61.247201 
   20650    216.02695    67.458566    131314.63   -40532.712    2632.4075   -43165.119    61.340444 
   20700    215.13678    106.26263    131439.51   -40512.337    2621.5604   -43133.897     61.45554 
   20750    216.01388    3.2683101    131611.25   -40469.988    2632.2483   -43102.236    61.697126 
   20800    218.07386   -117.50585    131653.79   -40490.873    2657.3502   -43148.223    61.979452 
   20850    217.79014   -140.11168    131570.44   -40486.476    2653.8929   -43140.369    62.086631 
   20900    216.72795    8.6154317     131371.1   -40499.192    2640.9496   -43140.142    62.354131 
   20950     217.0356    -48.14039    131374.02   -40508.714    2644.6985   -43153.413    62.626551 
   21000    219.45071    -11.22312    131286.91       -40472     2674.128   -43146.128    62.839089 
   21050    218.23059   -81.986816    131288.55   -40500.076      2659.26   -43159.336    63.096122 
   21100    214.94604    84.753026    131453.68   -40538.669    2619.2361   -43157.906    63.207187 
   21150    212.18174    213.78205    131513.19   -40579.004    2585.5515   -43164.556    63.313025 
   21200    212.63854   -58.543131    131579.41   -40602.085    2591.1178   -43193.203    63.402215 
   21250    215.14092   -25.718491     131581.2   -40556.124    2621.6107   -43177.735    63.678487 
   21300    214.23578    111.38702    131483.28   -40574.038    2610.5811   -43184.619    63.905591 
   21350    212.21584   -21.259413    131520.07   -40542.792    2585.9671   -43128.759    64.305598 
   21400    212.72239   -99.700904    131460.57   -40570.846    2592.1397   -43162.986    64.451019 
   21450    211.15545    47.943626    131431.77   -40592.074    2573.0456    -43165.12    64.736575 
   21500    215.41958    14.341757    131393.43   -40602.044    2625.0063   -43227.051    64.701053 
   21550    216.41551   -60.133137    131415.57   -40584.493    2637.1423   -43221.635    64.920568 
   21600    211.64341    35.779202    131426.29   -40602.627    2578.9917   -43181.619    65.034795 
   21650    213.25393    111.73495    131511.63   -40648.643    2598.6168    -43247.26     65.34479 
   21700    215.67623    8.4223851    131414.39   -40590.893    2628.1338   -43219.027     65.25051 
   21750    218.46561   -3.6185515    131488.68   -40584.056     2662.124    -43246.18    65.240712 
   21800    216.06697    200.52753    131728.59   -40587.217    2632.8952   -43220.112    65.389058 
   21850     215.3939   -176.02511    131939.75   -40571.777    2624.6935    -43196.47    65.716647 
   21900    214.70514    98.041553    131952.14   -40601.928    2616.3005   -43218.228     65.73572 
   21950    218.06574    22.430372    131981.17   -40550.386    2657.2514   -43207.637    65.846688 
   22000    215.76088   -101.31523    131921.99   -40573.678    2629.1653   -43202.843    66.004035 
   22050    217.34986   -10.400341    131817.43   -40579.469    2648.5279   -43227.997    66.101979 
   22100    213.45772   -143.22032    131774.94    -40591.79    2601.1001    -43192.89    66.389727 
   22150    214.47408   -71.834472    131732.59   -40597.386    2613.4849    -43210.87    66.500744 
   22200    214.12789   -5.9786176    131657.39    -40537.65    2609.2665   -43146.916    66.517373 
   22250     211.6568    90.267281    131736.91   -40577.499    2579.1548   -43156.654    66.751296 
   22300    210.43677    11.796965    131820.81   -40580.762    2564.2881    -43145.05    66.835651 
   22350    212.21981   -149.73626    131764.48   -40581.115    2586.0154    -43167.13     66.93659 
   22400    213.91226   -11.007311     131622.1   -40576.206    2606.6389   -43182.845    67.047925 
   22450    215.21267   -13.764875    131666.45    -40586.86     2622.485   -43209.345    67.142319 
   22500    214.97606   -16.117945    131732.38   -40585.483    2619.6018   -43205.085    67.279787 
   22550    219.51715   -21.726004    131781.58   -40583.878    2674.9375   -43258.815    67.442843 
   22600    212.38058   -26.644179    131670.26    -40678.48    2587.9745   -43266.455    67.581858 
   22650    211.21877    11.234881    131731.26   -40678.823    2573.8172    -43252.64    67.815746 
   22700    217.91804   -46.201712     131736.9   -40581.766    2655.4515   -43237.218    67.796414 
   22750    212.27271    127.98861    131638.96     -40565.5      2586.66    -43152.16    67.937304 
   22800    212.16185   -105.04145     131692.5   -40594.556    2585.3092   -43179.865    68.056596 
   22850     213.8703    71.267678    131663.64   -40544.879    2606.1275   -43151.006    68.174405 
   22900     215.8933    12.470952    131623.11   -40558.722     2630.779   -43189.501    68.384716 
   22950    213.70711    56.819918    131682.33   -40566.974     2604.139   -43171.113    68.639901 
   23000    214.73417   -4.2098622    131567.21   -40560.332    2616.6543   -43176.987    68.846679 
   23050    216.81399   -94.657204    131518.32   -40626.979     2641.998   -43268.977    68.952188 
   23100    213.76143   -201.41762    131398.07   -40657.735    2604.8009   -43262.536    69.031032 
   23150    207.83449    19.092511    131246.11   -40726.447    2532.5779   -43259.025    69.014191 
   23200    210.79016   -25.679972    131356.25   -40692.569    2568.5943   -43261.163    69.225389 
   23250    211.52401    81.463631    131388.43   -40631.316    2577.5367   -43208.853    69.394743 
   23300    217.63001    6.6958199    131424.43   -40594.085    2651.9417   -43246.027    69.391733 
   23350    215.38143    -103.5109    131358.71   -40625.088    2624.5415    -43249.63    69.445348 
   23400    217.04292     82.01162    131449.34   -40633.142    2644.7876    -43277.93    69.413259 
   23450    215.35641   -45.046266    131402.88   -40634.935    2624.2367   -43259.171    69.646098 
   23500    218.22952    35.184651    131393.03   -40613.123    2659.2471    -43272.37    69.825182 
   23550    214.18228    51.895059    131295.22   -40647.361    2609.9292    -43257.29    70.139216 
   23600    216.62996    14.113605     131391.9   -40642.123    2639.7555   -43281.879     70.16591 
   23650    215.20267    17.773038    131398.03   -40622.859    2622.3632   -43245.223     70.34035 
   23700    213.22101    141.39861    131385.15   -40649.518    2598.2156   -43247.734    70.655431 
   23750    219.16933     3.651082    131475.03   -40599.818    2670.6991   -43270.517    70.856277 
   23800    218.06611    -10.07865    131532.14   -40624.324    2657.2558   -43281.579    71.185735 
   23850    216.18643    79.862153    131545.78   -40638.961    2634.3509   -43273.311    71.538152 
   23900    215.35103   -4.2353546    131519.16    -40635.51    2624.1711   -43259.681    71.489916 
   23950    218.21135    27.795289    131513.86   -40666.058    2659.0257   -43325.083    71.694611 
   24000    215.62147    81.549447    131655.03    -40629.96    2627.4665   -43257.427    72.037131 
   24050    214.89559   -75.729809     131690.4   -40668.117    2618.6212   -43286.738     72.06157 
   24100    213.35138   -24.790322    131715.96   -40579.779    2599.8042   -43179.583    72.244722 
   24150     214.5121    45.121122    131791.85   -40602.039    2613.9482   -43215.987     72.28531 
   24200    220.26118    111.48665    131922.94   -40567.033     2684.004   -43251.037    72.428716 
   24250    218.14814    -74.12555    131991.21   -40577.189    2658.2554   -43235.445    72.622391 
   24300    216.51228   -42.483789    131854.85   -40530.629    2638.3216   -43168.951    72.630575 
   24350    218.25499   -9.0291139    131750.22   -40533.217    2659.5574   -43192.775    72.691667 
   24400    213.96735    16.906707    131795.61   -40614.421    2607.3101   -43221.731    72.644389 
   24450    212.29668    47.308973    131907.51   -40614.074    2586.9521   -43201.026    72.672336 
   24500    213.95448   -3.9206066    131822.48   -40635.403    2607.1534   -43242.556    72.794315 
   24550    216.57018    18.649797    131734.78   -40617.685    2639.0271   -43256.712    72.938302 
   24600    219.41414     41.20336     131733.7   -40635.419    2673.6823   -43309.101    72.884525 
   24650    213.13161    37.605848    131589.43   -40579.798    2597.1262   -43176.924      72.9739 
   24700    218.33155   -52.199289    131615.65   -40554.414    2660.4904   -43214.905    73.080171 
   24750    215.37036    -74.98651    131516.65   -40606.393    2624.4066     -43230.8    73.085684 
   24800    215.09564    97.859559    131554.01   -40633.882     2621.059   -43254.941    73.332339 
   24850    220.41265     73.38651    131666.41   -40578.175    2685.8496   -43264.025    73.614061 
   24900     216.4082   -33.276011     131660.9   -40590.918    2637.0532   -43227.971    73.829076 
   24950    221.37792   -27.655478    131735.95   -40559.075    2697.6121   -43256.687    73.960758 
   25000    220.41313    135.71075    131774.42   -40584.378    2685.8555   -43270.234    74.075455 
   25050    214.83364   -22.805196    131868.21   -40593.145    2617.8664   -43211.011    74.170581 
   25100    216.67052   -66.719181    131783.73   -40590.437    2640.2498   -43230.687    74.126501 
   25150    219.92216    112.94551    131813.76   -40648.367    2679.8728    -43328.24    74.396193 
   25200    211.94218   -71.596481    131798.83   -40695.043    2582.6324   -43277.676    74.713509 
   25250    213.31332    132.66717    131843.02   -40652.285    2599.3404   -43251.625     74.81241 
   25300     220.2049    106.57925    131971.68   -40604.356    2683.3181   -43287.674    74.935432 
   25350    219.15758   -122.66561    132049.97   -40650.626     2670.556   -43321.182    75.157403 
   25400     215.4649   -20.733678    131894.34   -40701.891    2625.5587    -43327.45    75.029235 
   25450    213.61948   -153.95884    131985.25   -40710.157    2603.0711   -43313.228    75.159148 
   25500    211.85088   -13.555315    131895.98   -40734.696    2581.5198   -43316.216    75.205652 
   25550    217.52895   -90.837904    131916.32   -40635.411    2650.7102   -43286.121    75.337508 
   25600    213.52655    65.549163    132003.21   -40683.027    2601.9388   -43284.966    75.629664 
   25650    213.08695    2.4490796    131936.15   -40666.535     2596.582   -43263.117    75.736871 
   25700    218.07238   -64.784586    131905.64   -40666.137    2657.3322   -43323.469    75.905189 
   25750    218.28405    -1.226993    131952.92   -40658.892    2659.9115   -43318.803    75.982767 
   25800    218.07611   -123.18843    131986.51   -40694.497    2657.3776   -43351.875    76.184832 
   25850    213.04419   -86.803994    131891.37   -40731.318    2596.0609   -43327.379    76.349343 
   25900    213.71919   -78.142442    131867.19   -40734.961    2604.2862   -43339.247    76.418186 
   25950    219.14667     110.2253    131982.58   -40667.749     2670.423   -43338.172    76.354494 
   26000    218.07848     66.71147    131994.54   -40626.681    2657.4065   -43284.088    76.701775 
   26050    218.74972    49.386281     132114.7   -40610.291    2665.5859   -43275.877    76.936059 
   26100    217.39627   -12.556848       132180   -40649.802    2649.0934   -43298.896    77.054764 
   26150    213.86084   -25.375236    132136.81   -40626.589    2606.0123   -43232.601    77.026084 
   26200     218.9511    104.13868    132203.99   -40607.074    2668.0398   -43275.113    77.002564 
   26250    219.01337    56.217344    132322.16   -40596.225    2668.7987   -43265.024    77.066325 
   26300    214.19026   -58.058031    132260.62   -40598.717    2610.0265   -43208.743    77.278732 
   26350    216.95214    18.055232    132159.47   -40565.402    2643.6814   -43209.084    77.407683 
   26400    212.62108   -114.87866     132073.4   -40608.465    2590.9051   -43199.371    77.583242 
   26450    218.74338    31.458833    131866.33   -40578.817    2665.5088   -43244.326    77.777295 
   26500    216.00304    23.949481    131794.84   -40575.418    2632.1161   -43207.534    77.945885 
   26550    218.34025   -56.456307    131730.96   -40580.739    2660.5964   -43241.336     77.89755 
   26600    217.70393     72.92462    131781.36   -40576.213    2652.8424   -43229.055    77.998904 
   26650    218.46871    45.277776    131840.85   -40556.584    2662.1617   -43218.746    78.410274 
   26700    217.39991   -122.62645     131822.2   -40559.993    2649.1378    -43209.13    78.732054 
   26750     218.1329    23.332287    131764.05   -40634.523    2658.0697   -43292.593    78.827202 
   26800    215.67468   -8.8081495    131877.28   -40631.083     2628.115   -43259.198    79.184052 
   26850    216.30412    28.934478    131957.04   -40674.145     2635.785    -43309.93    79.579491 
   26900    211.01349   -145.21349     131881.4    -40691.18    2571.3157   -43262.496    79.811779 
   26950    212.12675    1.2963623     131927.7   -40727.815    2584.8814   -43312.697    79.980931 
   27000    214.80331   -28.083652    131892.12   -40717.431    2617.4967   -43334.928    79.980505 
   27050    218.14286    26.595446    131837.38   -40694.858    2658.1911   -43353.049    79.945458 
   27100    215.55528    12.350938    131841.65   -40698.629    2626.6599   -43325.289    79.954363 
   27150    214.01592    -40.78407    131986.41   -40707.516     2607.902   -43315.418    80.070986 
   27200    214.70017   -152.84364    131774.46   -40747.211    2616.2399   -43363.451    80.225902 
   27250    214.50485    55.255834    131753.53   -40717.078    2613.8599   -43330.938    80.527386 
   27300    214.90532   -82.937886    131722.88   -40704.428    2618.7398   -43323.167     80.39451 
   27350    213.97887    224.16906    131694.66   -40733.705    2607.4505   -43341.155    80.106074 
   27400    219.10727    19.464183     131916.4   -40690.198    2669.9429   -43360.141    80.301008 
   27450    214.62505   0.18335686    131866.96    -40689.58    2615.3246   -43304.904    80.415853 
   27500    215.81239   -259.45346    131660.31   -40709.059    2629.7929   -43338.852     80.40466 
   27550    211.77919   -38.718875    131654.65   -40718.842    2580.6462   -43299.488    80.501341 
   27600    217.02712    67.898664    131694.82    -40696.46    2644.5951   -43341.055    80.661727 
   27650    213.30261    44.314078    131857.72   -40705.805      2599.21   -43305.015    80.958362 
   27700    214.16646    110.10021    131891.66   -40729.416    2609.7364   -43339.152     81.28056 
   27750    216.39446   -37.932604    131947.07   -40690.483    2636.8859   -43327.369    81.464085 
   27800    211.54254   -72.684823    132032.55   -40703.842    2577.7626   -43281.605    81.752722 
   27850    214.90779   -38.579832    131864.88   -40665.435    2618.7699   -43284.205    81.867023 
   27900    211.94943   -100.82203    131826.26   -40675.396    2582.7207   -43258.117    81.910671 
   27950    217.67995   -76.378351     131803.9   -40689.689    2652.5502   -43342.239    81.915173 
   28000    216.32936    39.698632    131769.93   -40691.967    2636.0925    -43328.06    82.089307 
   28050    214.76789   -6.7764169    131788.42   -40704.746    2617.0652   -43321.811    82.236861 
   28100    211.69269    194.24803    131773.47   -40675.072    2579.5922   -43254.664    82.423045 
   28150    216.22531    28.057246    131857.43   -40652.144    2634.8246   -43286.968    82.620882 
   28200    221.83701   -131.00476    131873.01   -40594.297    2703.2063   -43297.504    82.978886 
   28250    214.86032    120.42709    131838.01   -40681.059    2618.1915   -43299.251    83.143697 
   28300    214.34882    66.265625    131843.56   -40682.371    2611.9585    -43294.33    83.172969 
   28350    213.72127    110.13172    131793.74   -40668.728    2604.3115    -43273.04    83.344535 
   28400    214.72215    55.391324     131799.3    -40687.96    2616.5078   -43304.468    83.481779 
   28450    208.40549   -85.396901    131796.63   -40750.221    2539.5359   -43289.757    83.402847 
   28500     212.4086    95.725689    131729.41   -40796.127     2588.316   -43384.443    83.143748 
   28550    212.73277    119.61666    131698.06   -40779.044    2592.2661    -43371.31    83.383734 
   28600    214.78838      77.9325    131838.74   -40734.521    2617.3149   -43351.836    83.337619 
   28650    211.86655    94.251142    131806.17   -40756.853    2581.7108   -43338.564    83.512421 
   28700     212.3437    10.932212    131866.16   -40810.214    2587.5251   -43397.739    83.825499 
   28750    210.66019    46.759725    131896.73   -40803.384    2567.0106   -43370.394    83.857563 
   28800    217.64026   -50.806485     131989.6   -40724.086    2652.0666   -43376.152    84.070709 
   28850    217.14935    118.21582    131947.19   -40672.857    2646.0846   -43318.942    84.309722 
   28900    220.21516    68.863971    132020.57   -40652.133    2683.4431   -43335.576    84.456339 
   28950    218.16514    74.081244    132014.08   -40661.495    2658.4625   -43319.957    84.512444 
   29000    217.95485   -53.936816    131962.14   -40690.199    2655.9001   -43346.099    84.687979 
   29050    212.69227    32.290009    131870.27   -40720.562    2591.7726   -43312.335    84.725039 
   29100    213.49342   -30.094767    131848.95     -40702.5    2601.5351   -43304.035    84.812817 
   29150    214.68102    109.16094    131886.34   -40666.466    2616.0066   -43282.473    84.981469 
   29200    213.36988   -58.740159    131966.08   -40695.651    2600.0297   -43295.681    85.370252 
   29250    217.94528   -108.14846    131885.04    -40656.41    2655.7835   -43312.194    85.356854 
   29300    215.33759   -57.549057    131735.67   -40702.908    2624.0072   -43326.915    85.462585 
   29350     211.9265    64.913449    131620.73   -40745.455    2582.4413   -43327.896    85.592017 
   29400    212.83135   -78.984603    131536.35    -40718.79    2593.4674   -43312.257    85.585028 
   29450    205.26455    149.47085    131512.67   -40783.281    2501.2617   -43284.543    85.632248 
   29500    212.50143   -5.0467316    131448.29    -40729.51    2589.4471   -43318.957    85.617878 
   29550    216.40969   -34.975274    131493.64   -40671.704    2637.0714   -43308.775    85.682009 
   29600    218.67876   0.74337729    131523.97   -40634.683    2664.7213   -43299.405    85.838711 
   29650    215.92473    64.902605    131649.81   -40623.748    2631.1619    -43254.91    86.305577 
   29700    216.53541   -101.35458    131687.27   -40672.325    2638.6034   -43310.928    86.693865 
   29750    216.37002    222.76531    131771.81   -40656.358    2636.5881   -43292.946    86.985281 
   29800    213.27984    53.799886    131825.63   -40716.607    2598.9324    -43315.54    87.069457 
   29850    213.39488    -47.61941    131960.98   -40728.276    2600.3343    -43328.61      87.3627 
   29900    215.23348    80.361762    131871.44   -40727.084    2622.7386   -43349.823     87.69371 
   29950    217.07352   -44.541888    131840.73   -40647.363    2645.1606   -43292.524    87.756384 
   30000    215.30585    156.69196     131929.5    -40670.89    2623.6205    -43294.51    87.871242 
   30050    213.17608    64.174727    132068.15   -40679.417    2597.6681   -43277.085    88.185932 
   30100    215.38825   -3.2758809    132036.96   -40618.316    2624.6247   -43242.941    88.360541 
   30150    216.88758   -54.246786    131968.13   -40665.195    2642.8948    -43308.09    88.306516 
   30200    214.12978   -110.32262    131966.26   -40705.731    2609.2894    -43315.02    88.259046 
   30250    211.08828   -115.61913    131784.95   -40740.089    2572.2271   -43312.316    88.425871 
   30300    214.24702    -87.37775     131657.5   -40705.379    2610.7181   -43316.097    88.439719 
   30350    215.84039    91.732402    131699.68   -40654.465    2630.1341   -43284.599    88.809555 
   30400    219.39426    99.665128    131784.14   -40637.075    2673.4401   -43310.515    89.064256 
   30450    218.36231   -47.367524    131963.45   -40590.043    2660.8652   -43250.908    89.303246 
   30500     213.9467    55.888508    131959.08   -40614.592    2607.0585    -43221.65    89.369344 
   30550    219.98237    133.15947    132101.24    -40574.91    2680.6065   -43255.516    89.515438 
   30600    217.53538   -187.52373    131999.02   -40625.125    2650.7886   -43275.913    89.795245 
   30650     213.6986   -114.01771    131908.83   -40639.651    2604.0353   -43243.686    89.776165 
   30700    212.79125    47.720336    131791.86   -40656.365    2592.9788   -43249.343    89.690061 
   30750    214.11979   -107.53476    131816.03   -40657.418    2609.1678   -43266.586    89.591417 
   30800    214.95269    98.197461    131790.22   -40650.751    2619.3171   -43270.068     89.72984 
   30850    212.49525    160.49714    131898.82     -40702.8    2589.3718   -43292.172    90.029969 
   30900    212.08046    13.892801    132101.08   -40716.049    2584.3173   -43300.366    90.302521 
   30950    213.39338    32.301796    132067.63   -40725.768     2600.316   -43326.084    90.559526 
   31000     211.3371   -100.45646    131928.03   -40734.956    2575.2591   -43310.215    90.835804 
   31050    211.38015  -0.58550992     131974.4   -40782.881    2575.7837   -43358.664    91.091153 
   31100    210.48541    157.87679    132074.37   -40724.712    2564.8808   -43289.593    91.217302 
   31150    213.92719   -18.952814    132067.57    -40669.44    2606.8208   -43276.261    91.457994 
   31200    214.04485    7.8269032    131989.48   -40638.866    2608.2545   -43247.121    91.553445 
   31250    218.34853    54.113847    132015.77   -40599.762    2660.6972   -43260.459    91.513615 
   31300    220.71075    10.896467    132041.69   -40599.278    2689.4822    -43288.76    91.725579 
   31350    221.83823   -75.098369    132058.03   -40549.786    2703.2211   -43253.007    91.658412 
   31400    218.39954    100.76024    132079.42   -40587.388    2661.3188   -43248.706    91.690931 
   31450    217.14117   -57.760669    132067.03     -40605.6    2645.9849   -43251.585    92.079772 
   31500    213.19951   -8.9250623    132088.45   -40616.957    2597.9536   -43214.911    92.248626 
   31550    217.66905   -14.684958    132101.23   -40616.358    2652.4174   -43268.775     92.49934 
   31600    217.48188   -49.348225    131967.75   -40654.586    2650.1367   -43304.723     92.54036 
   31650    214.59134    60.639873    131860.44   -40628.169    2614.9138   -43243.083    92.664443 
   31700     216.4554   -114.25803    131805.61    -40632.84    2637.6284   -43270.469    92.980402 
   31750    214.79396   -10.875731    131871.22   -40595.918    2617.3828   -43213.301    93.272929 
   31800    215.10574   -32.744722    131879.95   -40663.245     2621.182   -43284.427     93.40526 
   31850    215.41768   -129.39327     131746.4   -40696.097    2624.9833   -43321.081    93.577883 
   31900    215.23554    49.207408    131635.21   -40669.542    2622.7638   -43292.306    93.839694 
   31950    216.82383    93.521472    131660.92   -40671.422     2642.118    -43313.54    94.153996 
   32000     215.2374   -29.604612    131674.23   -40685.388    2622.7865   -43308.174    94.332396 
   32050     218.3802   -89.269635    131606.24   -40688.727    2661.0832    -43349.81    94.444141 
   32100      212.524   -53.183369    131631.65   -40678.139    2589.7221   -43267.862    94.300984 
   32150    216.55982    31.604067     131573.1    -40637.19    2638.9008   -43276.091    94.404153 
   32200    212.64945   -117.15876    131652.26   -40702.292    2591.2508   -43293.542    94.881634 
   32250    216.88405   -80.529893    131531.05    -40678.23    2642.8517   -43321.082    94.976976 
   32300    217.85553   -41.283541    131492.48   -40698.869    2654.6897   -43353.559    95.052518 
   32350    217.06314    76.414014    131514.32   -40652.408    2645.0341   -43297.442    95.196092 
   32400    217.65938   -60.951759    131691.41   -40704.175    2652.2996   -43356.474    95.370234 
   32450     218.9704    197.31531    131815.17   -40715.306    2668.2751   -43383.582    95.238962 
   32500    216.02097    132.26936    132001.98   -40713.014    2632.3346   -43345.348    95.438008 
   32550    216.03907   -82.777366    132026.66    -40672.18    2632.5552   -43304.735    95.403519 
   32600    210.53635     8.037319    131905.51   -40714.223    2565.5015   -43279.724     95.11516 
   32650    216.19608    49.900833    131946.38   -40665.807    2634.4685   -43300.275    95.265295 
   32700    213.57446   -94.882386    131977.79   -40656.156    2602.5225   -43258.679    95.488281 
   32750    219.43866    154.66624    132110.66   -40643.375    2673.9811   -43317.357    95.640295 
   32800    217.36368    28.130238    132219.65   -40612.981    2648.6963   -43261.677    95.983836 
   32850    216.66428    10.892596    132280.98    -40663.42    2640.1737   -43303.594     96.12552 
   32900    215.27039    141.36895    132371.79   -40665.503    2623.1884   -43288.691    96.314072 
   32950    214.05903    43.031775    132428.78   -40679.206    2608.4273   -43287.633    96.405768 
   33000    215.52842       13.881    132353.79   -40725.868    2626.3327     -43352.2    96.463539 
   33050    211.37918     22.29624    132252.61   -40723.662    2575.7719   -43299.434    96.554832 
   33100    210.24865   -62.097781    132212.03   -40727.438    2561.9957   -43289.433    96.702917 
   33150    212.87889   -126.37686    132218.31    -40720.97    2594.0467   -43315.017    96.908274 
   33200    209.81143    12.384105    132197.06   -40770.643     2556.668   -43327.311     96.90931 
   33250    215.15272    50.209621    132210.97   -40751.807    2621.7546   -43373.562    96.932946 
   33300     215.7119   -56.577997     132219.2   -40723.332    2628.5685   -43351.901    97.029683 
   33350    211.27767    66.256378    132171.46   -40757.304    2574.5349   -43331.838    97.179882 
   33400    215.80494    -39.28972    132189.05   -40719.328    2629.7022    -43349.03    97.014563 
   33450    213.10791    57.262454    132301.35   -40741.318    2596.8374   -43338.155    97.009919 
   33500    210.32043    77.756168    132329.31   -40759.509    2562.8704   -43322.379    97.121506 
   33550    218.00385   -41.308308    132287.87   -40735.267    2656.4972   -43391.764    97.210496 
   33600    213.49613   -192.53552    132216.73   -40741.603    2601.5681   -43343.171    97.212866 
   33650    214.04824    13.966211    132171.53   -40706.158    2608.2959   -43314.454     97.06294 
   33700    215.80386    38.236361     132230.2   -40712.342     2629.689   -43342.031    96.908972 
   33750    215.19898   -33.509803    132200.94    -40715.17    2622.3183   -43337.489    97.167831 
   33800    218.20197    48.019617    132185.66   -40719.165    2658.9113   -43378.076    97.280988 
   33850    216.92467    76.334153     132180.7   -40747.203    2643.3467    -43390.55    97.805881 
   33900    212.33422    124.80272    132243.24   -40712.361    2587.4096    -43299.77    98.136893 
   33950    212.22904    18.967913    132276.65   -40729.226    2586.1279   -43315.354    98.300221 
   34000    212.90906   -98.513764    132200.42   -40721.701    2594.4143   -43316.115    98.387954 
   34050    215.83876   -163.82723     132003.2   -40750.794    2630.1143   -43380.908     98.34988 
   34100    212.90195   -55.493606    131974.78   -40729.952    2594.3277    -43324.28    98.417686 
   34150    213.60802    -16.82415    131940.94   -40744.347    2602.9315   -43347.279    98.441697 
   34200    212.22681   -191.36647     131966.7   -40697.217    2586.1007   -43283.317    98.471987 
   34250    214.64305   -37.282897    131879.32     -40672.8    2615.5439   -43288.344    98.641274 
   34300    209.05691   -60.259496    131872.29   -40697.393    2547.4738   -43244.867    99.018085 
   34350    220.34015    38.555701    131924.42    -40643.39    2684.9662   -43328.356    99.524172 
   34400     212.4866   -105.44736    131901.31   -40689.337    2589.2664   -43278.604    99.741861 
   34450    212.51979   -1.0067507    131870.81   -40664.713    2589.6708   -43254.384    100.05221 
   34500    216.63574     146.5356    132052.87   -40695.301    2639.8259   -43335.127    100.17476 
   34550    212.33093    64.856195    132271.07   -40727.276    2587.3695   -43314.645     100.6034 
   34600    210.37957   -157.18018    132227.98   -40768.178     2563.591   -43331.769    100.87549 
   34650     214.7221   -93.766941    132124.34   -40792.665    2616.5072   -43409.172    101.06658 
   34700     211.9055   -45.763421    132064.37   -40794.104    2582.1853   -43376.289     101.1436 
   34750     214.0307    -76.24937     132142.2   -40776.771    2608.0821   -43384.853    101.34826 
   34800    212.96772   -21.757385    132054.64   -40728.848    2595.1292   -43323.977    101.35523 
   34850    212.97112   -148.69407     132020.5   -40684.918    2595.1705   -43280.089    101.50459 
   34900    213.48903    -26.11159    131975.23   -40696.279    2601.4815   -43297.761    101.24864 
   34950    214.41707   -5.3336565    131971.32   -40698.508    2612.7903   -43311.298    101.18769 
   35000    219.32283    126.15871    132113.31   -40660.315    2672.5696   -43332.885    101.52993 
   35050    217.97217     148.8662    132348.38   -40620.619    2656.1111    -43276.73    101.70793 
   35100    213.87514   -76.364113    132219.15   -40615.158    2606.1865   -43221.345    101.92859 
   35150    218.23071   -110.06729    132149.47   -40694.446    2659.2616   -43353.708    102.26626 
   35200    210.16207    65.022617    132103.38   -40688.739    2560.9407    -43249.68    102.30905 
   35250    220.38432    26.001406       132111   -40644.207    2685.5045   -43329.712    102.61709 
   35300    214.34002    18.969689    131982.14   -40659.959    2611.8513    -43271.81    102.71219 
   35350    215.22314    142.72086    132163.46   -40681.582    2622.6126   -43304.195    102.83417 
   35400    214.31523   -164.17533    132232.08   -40686.244    2611.5492   -43297.793    102.96352 
   35450    212.68405   -24.462053    132224.14   -40681.114    2591.6724   -43272.787    102.93219 
   35500    215.71827   -15.282895    132146.37   -40655.039    2628.6461   -43283.685    103.05655 
   35550    212.86176   -130.27703    131929.72   -40661.364    2593.8379   -43255.202     103.0032 
   35600    217.93373   -22.898576    132028.89   -40655.577    2655.6427   -43311.219    103.09714 
   35650    213.20102    146.19209     132125.5   -40614.894     2597.972   -43212.866    103.14868 
   35700    216.34022   -179.65615    132211.92   -40571.555    2636.2249    -43207.78    103.30517 
   35750    216.76948   -62.958047    132151.11    -40643.59    2641.4556   -43285.046    103.26248 
   35800      215.568    65.487368    132207.37   -40646.689     2626.815   -43273.504    103.25797 
   35850    218.97599    28.175066    132152.94   -40662.849    2668.3431   -43331.192    103.02108 
   35900    212.25908    67.565601    132244.66   -40727.572     2586.494   -43314.066    103.18798 
   35950    215.09749   -103.59178    132252.45   -40748.853    2621.0815   -43369.934    103.18959 
   36000    209.23997    81.070998    132181.25   -40775.217    2549.7045   -43324.921    103.65149 
   36050    211.97638   -116.07699    132162.92   -40752.576     2583.049   -43335.625    103.57783 
   36100    210.34653   -6.3211525    132063.08   -40764.949    2563.1884   -43328.137    103.48209 
   36150    211.76333   -17.592427    131998.09    -40802.64    2580.4529   -43383.093    103.55718 
   36200    213.50608   -5.2773828    132018.75    -40785.14    2601.6893   -43386.829    103.71854 
   36250     211.9951    -18.57433    131991.93   -40840.233    2583.2772    -43423.51    103.85914 
   36300    210.80799    36.900263    131960.84     -40808.9    2568.8117   -43377.712    104.08899 
   36350    209.02278    71.115859    131985.86   -40826.781    2547.0579   -43373.839    104.21897 
   36400    212.73179   -96.440919    131989.07   -40747.613    2592.2542   -43339.867    104.27938 
   36450    211.86719   -12.042616    131956.36   -40746.479    2581.7186   -43328.198    104.31965 
   36500    214.64834    -103.0606    131916.81   -40700.406    2615.6084   -43316.015    104.09043 
   36550    211.42907    170.82184    132010.44    -40736.62    2576.3798       -43313     104.3142 
   36600    213.03339   -115.44332    132065.91   -40724.377    2595.9293   -43320.307    104.71114 
   36650    216.26022    131.50238    132006.92   -40722.755    2635.2501   -43358.005    104.93812 
   36700    216.86102   -31.730348    132107.39   -40675.099    2642.5711    -43317.67    105.18023 
   36750    213.53966   -51.243787    132223.14   -40674.001    2602.0985   -43276.099    105.32821 
   36800    212.59496   -74.877533    132087.96   -40687.588    2590.5868   -43278.175    105.51378 
   36850    215.63793   -230.99314    131971.92   -40690.267    2627.6671   -43317.934    105.62229 
   36900    215.14391    48.084188    131858.15    -40704.88    2621.6472   -43326.527    105.53937 
   36950    215.68284    -35.75892    131921.51   -40692.823    2628.2144   -43321.037    105.81408 
   37000    211.15009    50.770329    131936.96   -40741.306    2572.9803   -43314.287    106.07801 
   37050    215.45028   -93.544192    131959.13   -40743.201    2625.3805   -43368.581    106.19069 
   37100    209.94971    87.972106    132037.63   -40748.301     2558.353   -43306.654    106.72859 
   37150    211.22193   -90.933949    132004.33   -40781.347    2573.8557   -43355.203    106.92011 
   37200    213.62399   -28.275313    131957.85   -40722.946    2603.1262   -43326.072    107.23574 
   37250     213.6383    -1.668011    131929.25   -40772.529    2603.3005   -43375.829    107.48065 
   37300    214.25794   -71.841129    131834.54   -40759.727    2610.8512   -43370.579    107.67574 
[...]
  191000    215.49354    25.494902    131635.32   -40644.353    2625.9076    -43270.26    529.46531 
  191050    219.18524   -167.86336    131729.63   -40637.295    2670.8931   -43308.188    529.89389 
  191100    215.28931   -10.617437     131583.3   -40657.024     2623.419   -43280.443    529.71533 
  191150    214.69947    21.249595     131475.7   -40681.118    2616.2315    -43297.35    529.43643 
  191200    215.91403    102.65805    131517.75   -40684.584    2631.0315   -43315.616    529.82722 
  191250     210.4021    37.011232    131565.47   -40696.571    2563.8656   -43260.437    530.20868 
  191300    216.95974   -93.259794    131482.24    -40680.14    2643.7741   -43323.914     530.2852 
  191350    215.18011   -112.12477    131413.25   -40693.569    2622.0883   -43315.657    530.48269 
  191400     213.4877    119.59591    131365.21   -40652.968    2601.4654   -43254.434    530.26017 
  191450     219.9978    90.182386    131462.77   -40580.248    2680.7945   -43261.043    530.88519 
  191500     223.7852    19.209391    131596.89   -40580.639    2726.9461   -43307.585    531.36999 
  191550    215.93568   -74.610946    131563.22   -40622.665    2631.2953   -43253.961     531.0619 
  191600    215.36267    117.32867     131512.1   -40643.423    2624.3129   -43267.736    531.32343 
  191650    218.06669   -127.69878    131516.62   -40586.704    2657.2629   -43243.967     531.9603 
  191700    216.79359   -95.167503    131449.57   -40596.969    2641.7494   -43238.719     532.3541 
  191750     218.5032    66.409463    131441.83   -40588.793     2662.582   -43251.375    532.18209 
  191800    215.30833    23.802813    131502.39   -40615.678    2623.6508   -43239.329    532.11922 
  191850     216.0701    53.564633    131472.06   -40665.203    2632.9333   -43298.136    532.21104 
  191900    217.75573    112.97799    131577.88    -40632.38    2653.4737   -43285.854    532.96617 
  191950      216.086   -90.494591    131625.55   -40620.211    2633.1271   -43253.339    533.94881 
  192000    212.90025   -24.349765    131727.07   -40645.425     2594.307   -43239.732    534.67466 
  192050    214.76785    7.7322416    131786.63   -40664.587    2617.0646   -43281.652    534.86872 
  192100    214.64333    -24.96243    131790.16   -40663.397    2615.5474   -43278.945    534.95845 
  192150    215.90885   -113.24635    131756.71   -40646.316    2630.9684   -43277.284    535.06047 
  192200    218.58638    118.59485    131908.03   -40648.689    2663.5956   -43312.284    535.57876 
  192250    213.78057   -72.277844    131917.08   -40644.224    2605.0341   -43249.259    535.76966 
  192300    217.74538    14.195529    131822.32   -40649.575    2653.3475   -43302.923    535.16849 
  192350    218.44229   -86.730472    131839.51   -40594.105    2661.8398   -43255.945     535.4939 
  192400    217.88135    58.622278     131827.6   -40586.246    2655.0044    -43241.25    535.92402 
  192450    222.00567   -5.2779195     131903.1   -40560.013    2705.2616   -43265.275    535.98431 
  192500    216.42944    103.07569    131964.19   -40614.049    2637.3121   -43251.361    536.58429 
  192550    217.15064   -37.843636    132097.17   -40612.564    2646.1003   -43258.664    537.25903 
  192600    214.17006    105.93391    131973.79   -40661.684    2609.7803   -43271.464     536.7691 
  192650    215.49046    53.049139    132101.69   -40669.617    2625.8701   -43295.487    536.72632 
  192700    218.01678    113.15604    132141.41   -40635.016    2656.6547   -43291.671    536.44944 
  192750     215.2831    159.97749    132159.49   -40602.644    2623.3433   -43225.987    536.71711 
  192800    222.86672     88.98751    132320.93   -40570.899    2715.7539   -43286.653     537.3061 
  192850    219.60839   -25.278823    132368.96   -40561.128    2676.0494   -43237.177    537.99112 
  192900    216.67337   -22.482113    132270.96   -40568.285    2640.2845    -43208.57    537.98442 
  192950    218.61552    231.81604    132475.79   -40511.968    2663.9506   -43175.919    538.19054 
  193000    220.14871    38.129452    132612.64   -40488.727    2682.6334    -43171.36     538.9265 
  193050    221.08419    73.839793    132646.93   -40506.719    2694.0328   -43200.752    539.44783 
  193100    217.28476   -79.797434    132664.57   -40535.671    2647.7347   -43183.406    540.12845 
  193150     216.0709   -184.46974    132535.96   -40622.775     2632.943   -43255.718    539.39984 
  193200     213.2958    160.68635    132470.35   -40613.229     2599.127   -43212.356    539.04817 
  193250    215.30614   -73.280895    132337.05   -40587.915     2623.624   -43211.539    539.34954 
  193300    220.13777    185.40805    132560.37   -40523.264    2682.5001   -43205.764    540.14305 
  193350    216.54847   -35.827979    132519.71   -40538.217    2638.7625   -43176.979    540.01567 
  193400    217.53031   -170.25262    132176.75   -40598.082    2650.7268   -43248.809    538.98821 
  193450    214.84778    34.391761    131986.55   -40607.822    2618.0387    -43225.86    538.66749 
  193500    215.99321   -136.89911    132002.76   -40595.979    2631.9964   -43227.976    538.88989 
  193550    212.56367   -202.46479     131832.2   -40671.283    2590.2055   -43261.488    538.69068 
  193600    208.50453     267.7212    131804.05   -40694.539    2540.7427   -43235.282    538.90509 
  193650     213.8314    12.093581    131824.18    -40676.83    2605.6535   -43282.483    538.37344 
  193700    211.33572   -13.658115    131881.25    -40707.97    2575.2423   -43283.213    538.89938 
  193750      213.641    36.189746    131898.05   -40668.343    2603.3334   -43271.676     539.3778 
  193800    211.97398   -65.485287    131963.34   -40663.658    2583.0198   -43246.678    539.74488 
  193850     213.3226    44.020525    131944.48   -40670.628    2599.4536   -43270.081    540.07935 
  193900    216.56271    81.086783    131968.97   -40662.946     2638.936   -43301.882    540.12066 
  193950    217.31132   -209.51376    131966.51   -40653.621    2648.0583   -43301.679    540.48376 
  194000    215.67599    71.749818    131821.25   -40661.198    2628.1309   -43289.329    540.10174 
  194050    215.11573    45.374989    131852.37   -40630.825    2621.3039   -43252.128    539.87133 
  194100    218.63038    78.121487    131826.03   -40584.307    2664.1318   -43248.439    539.86197 
  194150    216.89227   -36.961628    131847.87   -40601.894    2642.9519   -43244.846    540.00604 
  194200     216.5837    44.262122    131672.22    -40569.96    2639.1919   -43209.152    539.36541 
  194250    210.50356    79.281369     131877.9   -40566.731    2565.1019   -43131.833    540.14605 
  194300    213.40539    16.173798    131704.39   -40597.954    2600.4624   -43198.417    539.75177 
  194350    216.83122   -105.23568    131716.64    -40618.72     2642.208   -43260.928    539.61969 
  194400    211.61358   -98.104686    131569.76   -40697.726    2578.6282   -43276.354    539.20478 
  194450    214.40951   -24.590196    131431.94   -40731.189    2612.6981   -43343.887    539.96236 
  194500    206.61471   -5.2117611    131333.06   -40736.011    2517.7142   -43253.725    540.07916 
  194550     211.4721   -20.438506    131435.01   -40758.258    2576.9042   -43335.162    540.59651 
  194600    210.23245    26.329007    131452.19   -40711.404    2561.7983   -43273.202    540.48827 
  194650    211.21241    158.02098    131532.38   -40677.612    2573.7397   -43251.352      540.503 
  194700    211.70044    -12.90848     131696.1   -40660.674    2579.6866    -43240.36    541.39634 
  194750    211.14621   -50.847423    131528.41    -40688.14    2572.9331   -43261.073    540.74248 
  194800    214.89726    42.459216    131502.26   -40595.634    2618.6416   -43214.275    540.52535 
  194850    216.35868   -38.960971    131444.17   -40641.526    2636.4498   -43277.976    540.68732 
  194900    210.63276   -9.3177605    131484.18   -40644.749    2566.6763   -43211.425      541.146 
  194950    214.45491   -53.905548    131326.94     -40632.6    2613.2514   -43245.851    540.57838 
  195000    216.68936    105.89515    131452.43   -40670.128    2640.4794   -43310.607    540.71321 
  195050    213.98856     101.0452    131701.76   -40667.645    2607.5686   -43275.213    541.31413 
  195100     209.9045   -3.7028243    131867.87   -40674.502    2557.8021   -43232.304    542.19071 
  195150    213.99708   -77.018663    131769.84   -40681.185    2607.6725   -43288.858    542.11674 
  195200    217.69889    5.8127502    131756.99    -40688.16     2652.781   -43340.941    542.38091 
  195250    217.03551   -22.705591    131678.44   -40685.516    2644.6974   -43330.213     542.6271 
  195300    211.65068    68.476066    131779.87   -40688.648    2579.0803   -43267.728    542.70933 
  195350    214.43592   -49.126289    131727.28    -40670.31    2613.0199    -43283.33    543.00541 
  195400    211.19684   -79.679294    131519.25   -40682.612      2573.55   -43256.162    542.87756 
  195450    214.96019   -88.483455    131451.29   -40623.958    2619.4085   -43243.367    543.30626 
  195500    215.01063    105.55708    131492.46   -40611.781    2620.0232   -43231.804    543.42073 
  195550    212.18342    121.64848    131628.16   -40610.769    2585.5719   -43196.341    544.22152 
  195600    213.22713   -175.37973    131662.67   -40631.498    2598.2901   -43229.788    544.31104 
  195650    210.86891    115.85143     131632.6   -40654.831    2569.5539   -43224.385    545.04096 
  195700    216.14564   -146.70384    131557.49   -40607.545    2633.8538   -43241.399    545.02786 
  195750    216.00526     113.8717    131628.79   -40604.149    2632.1432   -43236.292    545.14754 
  195800    210.19779    16.819298    131812.52   -40630.834     2561.376    -43192.21    545.96526 
  195850    215.61523   -77.823624     131878.6   -40619.325    2627.3905   -43246.716    546.30902 
  195900    213.08088   -1.0524385    131893.15    -40633.51     2596.508   -43230.018    547.11509 
  195950    216.14886    -24.97747    131765.07   -40625.316    2633.8931   -43259.209    546.93242 
  196000    210.63003    26.646336    131670.11   -40640.039    2566.6431   -43206.682    546.72528 
  196050    219.00922    119.55364    131652.44   -40667.373    2668.7481   -43336.122    546.78351 
  196100     214.3604   -116.31093    131759.84   -40672.872    2612.0997   -43284.972    547.36968 
  196150    215.09599     203.5306    131878.21   -40683.064    2621.0632   -43304.128    547.78307 
  196200     218.8725    48.603565    131990.27   -40680.531    2667.0821   -43347.613    548.12537 
  196250    215.66304    125.25338    132076.94   -40621.253     2627.973   -43249.226    548.55201 
  196300    215.24297   -33.058954    132037.11   -40587.861    2622.8543   -43210.716    548.78457 
  196350    213.20359    2.4645302     131880.5   -40663.189    2598.0033   -43261.193    548.29054 
  196400    219.93042    35.799199    131815.71    -40650.18    2679.9734   -43330.153    548.20028 
  196450    214.31947    6.5621378    131917.55   -40737.181     2611.601   -43348.782     548.7804 
  196500    212.80489    61.593368    132083.71   -40718.187     2593.145   -43311.332    549.94344 
  196550    218.18006   -57.750693    132207.66   -40731.708    2658.6443   -43390.353    550.47075 
  196600    212.31354   -53.553085    132212.96    -40748.52    2587.1576   -43335.677    550.45161 
  196650    216.65615   -157.92864    131984.99   -40758.001    2640.0747   -43398.075     550.0029 
  196700    214.50451    -101.4145    131805.73   -40786.521    2613.8557   -43400.377    549.71214 
  196750    217.19915    38.561779    131767.11   -40763.692    2646.6914   -43410.383    549.26578 
  196800    215.77032    34.183008    131847.87   -40742.614    2629.2804   -43371.894    549.41058 
  196850    212.81397   -22.627877    131989.75   -40780.601    2593.2556   -43373.857    550.24881 
  196900    210.85366    79.418746     131921.1   -40838.197    2569.3681   -43407.566     550.6223 
  196950    210.93491   -245.60753    131885.34   -40772.813    2570.3582   -43343.172    550.39563 
  197000    211.21254   -167.69417    131750.34   -40794.115    2573.7413   -43367.857    550.20089 
  197050    212.89844    134.38641     131761.4   -40783.978    2594.2849   -43378.263    550.74831 
  197100    211.97242    166.58302    132003.43   -40805.525    2583.0008   -43388.525    551.43055 
  197150    212.15595    28.316489    132137.28   -40813.098    2585.2372   -43398.335    551.89764 
  197200    212.95795    45.848737    132239.31   -40838.671      2595.01   -43433.681    552.37214 
  197250    215.42843   -248.98459    132126.22   -40810.327    2625.1143   -43435.442    551.76309 
  197300    211.19256   -139.33842    131961.43   -40823.291    2573.4978   -43396.789    551.36621 
  197350    212.24279   -146.04164    131881.13    -40813.23    2586.2955   -43399.526    550.77854 
  197400    215.23688    85.315234    131830.44    -40797.86      2622.78    -43420.64    550.62386 
  197450    215.48315   -139.97447    131776.38    -40763.17     2625.781   -43388.951    550.47304 
  197500    213.79906    66.989957    131755.46   -40788.937    2605.2595   -43394.196    550.45246 
  197550    216.46216   -35.869381    131845.21   -40749.743    2637.7108   -43387.454    550.66209 
  197600    216.56983    51.118486    131866.33   -40700.787    2639.0228    -43339.81     550.8376 
  197650    214.73402   -199.28685    131804.62   -40717.705    2616.6524   -43334.358    550.55128 
  197700    215.44696    84.702202    131746.65   -40736.116    2625.3401   -43361.456    550.70616 
  197750    212.96815   -25.446457    131732.09   -40755.663    2595.1343   -43350.797    550.83718 
  197800    212.19798   -25.483379    131744.91   -40741.723    2585.7494   -43327.473     551.1365 
  197850    208.58357    73.391587    131700.05   -40759.365    2541.7059    -43301.07     551.1454 
  197900    212.53672    219.57988    131907.34   -40792.738    2589.8772   -43382.615    551.53482 
  197950    214.94804   -40.420034    131963.11   -40822.153    2619.2603   -43441.414    552.27136 
  198000    214.36437   -4.9267755     131916.9   -40781.991     2612.148   -43394.139    551.94027 
  198050    214.41924     10.98876    131852.66   -40752.076    2612.8167   -43364.893    552.44928 
  198100    211.90394    45.979217    131869.52   -40791.851    2582.1664   -43374.018    553.05837 
  198150    213.20757   -45.977259     131803.8   -40786.928    2598.0518   -43384.979    552.45498 
  198200    212.43377   -21.021171     131713.8   -40794.924    2588.6226   -43383.547    552.60662 
  198250    213.34739   -101.45016    131749.36   -40814.769    2599.7556   -43414.525    552.48458 
  198300    213.70291    91.216908    131839.27   -40834.207    2604.0878   -43438.295    552.37557 
  198350    216.30083   -111.50237    131789.72   -40799.731    2635.7448   -43435.476    552.46058 
  198400    212.31273   -39.020163    131671.82    -40767.31    2587.1477   -43354.458    552.34288 
  198450    212.22232    187.96425    131558.86   -40787.306     2586.046   -43373.352    551.93399 
  198500    215.46986    107.11293     131747.4   -40699.225    2625.6191   -43324.844    552.73376 
  198550    214.46632    71.832263    131845.85   -40763.006    2613.3904   -43376.397    552.74311 
  198600    209.28354   -70.821912    131854.68   -40823.341    2550.2354   -43373.577    553.43573 
  198650    213.71737   -48.908936    131796.71   -40815.331     2604.264   -43419.595    553.02957 
  198700    209.60148   -128.79294    131718.14   -40791.624    2554.1096   -43345.734    553.47217 
  198750    212.12144    110.42343    131787.22   -40808.709    2584.8167   -43393.526    554.17195 
  198800    213.44114    2.9166965    131862.08   -40820.572    2600.8981    -43421.47     554.3529 
  198850    210.65146    128.00258    131895.54   -40805.754    2566.9042   -43372.658    554.97073 
  198900    212.80473    60.121853     132027.2   -40758.751     2593.143   -43351.894    555.71553 
  198950    218.47538   -103.31203    131955.96   -40710.531     2662.243   -43372.774    554.81633 
  199000    215.57652    103.25011     132003.7   -40744.299    2626.9187   -43371.218    555.64014 
  199050    210.37532     49.21941     132100.5   -40699.207    2563.5393   -43262.747    555.82138 
  199100    216.25742    97.279113     132095.6   -40678.244    2635.2159    -43313.46    555.73426 
  199150    215.37514    66.485422    132164.38   -40641.066    2624.4649   -43265.531    556.38739 
  199200     217.1265    49.004995    132197.04   -40654.483    2645.8061   -43300.289    556.31317 
  199250    216.82304   -82.293295    132163.29   -40673.545    2642.1083   -43315.653    556.43801 
  199300     216.2112   -174.36142    132001.56   -40687.553    2634.6527   -43322.206    556.34964 
  199350    213.54735   -9.7084529    131899.71   -40695.901    2602.1923   -43298.093    555.72325 
  199400    215.77827    61.819689    131905.92   -40714.239    2629.3772   -43343.616     556.2414 
  199450     212.7145   -72.723744    131922.71   -40721.828    2592.0435   -43313.871    556.36572 
  199500    215.92732   -96.019017    131875.28   -40679.867    2631.1935   -43311.061    556.31255 
  199550    214.60787    80.123924    131922.36   -40682.677    2615.1153   -43297.792    556.70022 
  199600    215.68303   -5.0709869    132073.66   -40716.165    2628.2167   -43344.382     556.8636 
  199650     212.0953   -69.551005     132062.3   -40730.165    2584.4982   -43314.664    557.05405 
  199700    213.46717    8.9668268    131926.71   -40691.798    2601.2151   -43293.013    557.22691 
  199750    211.37782    38.085515    131963.97   -40703.665    2575.7554    -43279.42    557.75851 
  199800    212.05954   -54.922033    131877.94   -40714.326    2584.0625   -43298.388    557.85021 
  199850    207.87335    23.077593    131809.83   -40651.751    2533.0514   -43184.803    557.40913 
  199900    216.95406    171.51295    131946.56   -40642.176    2643.7048    -43285.88    558.45785 
  199950    214.11487   -30.470199    131889.44   -40669.091    2609.1077   -43278.199    558.58101 
  200000     215.6302    -16.34309    131957.06   -40679.923    2627.5729   -43307.496    558.78721 
Loop time of 348.883 on 12 procs for 200000 steps with 4089 atoms

Performance: 247.647 ns/day, 0.097 hours/ns, 573.258 timesteps/s
99.0% CPU use with 12 MPI tasks x no OpenMP threads

MPI task timing breakdown:
Section |  min time  |  avg time  |  max time  |%varavg| %total
---------------------------------------------------------------
Pair    | 235.59     | 278.28     | 304.9      | 168.0 | 79.76
Neigh   | 6.1218     | 7.1957     | 8.1353     |  25.2 |  2.06
Comm    | 28.932     | 55.813     | 98.951     | 378.2 | 16.00
Output  | 0.15945    | 0.18756    | 0.47891    |  20.3 |  0.05
Modify  | 5.4895     | 5.8973     | 6.4497     |  14.3 |  1.69
Other   |            | 1.505      |            |       |  0.43

Nlocal:    340.75 ave 370 max 294 min
Histogram: 1 2 1 0 0 0 0 2 3 3
Nghost:    962.083 ave 1002 max 901 min
Histogram: 4 0 0 0 0 0 0 1 4 3
Neighs:    0 ave 0 max 0 min
Histogram: 12 0 0 0 0 0 0 0 0 0
FullNghs:  11091.7 ave 12245 max 9462 min
Histogram: 1 2 1 0 0 0 0 5 1 2

Total # of neighbors = 133100
Ave neighs/atom = 32.5507
Neighbor list builds = 11797
Dangerous builds = 0

write_data		${DIR}/data.eq-${NAME}-${TEMP}
write_data		run_3/data.eq-${NAME}-${TEMP}
write_data		run_3/data.eq-hardcavity_freeze_nvt_3-${TEMP}
write_data		run_3/data.eq-hardcavity_freeze_nvt_3-215
undump          1

reset_timestep  0

unfix           2
unfix           3
unfix           4


################################################
#######         Run Simulation         #########
################################################

log				${DIR}/log.run_${NAME}
log				run_3/log.run_${NAME}
log				run_3/log.run_hardcavity_freeze_nvt_3
