LAMMPS data file via write_data, version 29 Sep 2021, timestep = 5200000

9436 atoms
2 atom types

0 157.504 xlo xhi
0 36.48765944037512 ylo yhi
0 45.87204637965853 zlo zhi

Masses

1 12.01
2 18.015

Atoms # atomic

1 1 0 2.8417180249513345 1.677 0 0 0
3 1 0 0 1.677 0 0 0
5 1 1.2305 0.7104295062378347 1.677 0 0 0
12 1 1.2305 2.1312885187135 1.677 0 0 0
14 1 2.461 2.8417180249513345 1.677 0 0 0
16 1 2.461 0 1.677 0 0 0
18 1 3.6915 0.7104295062378347 1.677 0 0 0
33 1 3.6914999999999996 2.1312885187135 1.677 0 0 0
35 1 4.922 2.841718024951334 1.677 0 0 0
37 1 4.922 0 1.677 0 0 0
39 1 6.1525 0.7104295062378343 1.677 0 0 0
62 1 6.1525 2.1312885187134993 1.677 0 0 0
64 1 7.382999999999999 2.8417180249513345 1.677 0 0 0
66 1 7.382999999999999 0 1.677 0 0 0
68 1 8.613499999999998 0.7104295062378343 1.677 0 0 0
97 1 8.613499999999998 2.1312885187135002 1.677 0 0 0
99 1 9.844 2.8417180249513336 1.677 0 0 0
101 1 9.844 0 1.677 0 0 0
103 1 11.0745 0.7104295062378334 1.677 0 0 0
132 1 11.0745 2.1312885187135002 1.677 0 0 0
134 1 12.305 2.8417180249513336 1.677 0 0 0
136 1 12.305 0 1.677 0 0 0
138 1 13.535499999999999 0.7104295062378352 1.677 0 0 0
167 1 13.535499999999999 2.1312885187134984 1.677 0 0 0
169 1 14.765999999999998 2.8417180249513354 1.677 0 0 0
171 1 14.765999999999998 0 1.677 0 0 0
6 1 0 7.104295062378334 1.677 0 0 0
8 1 0 4.262577037427 1.677 0 0 0
10 1 1.2305000000000001 4.973006543664834 1.677 0 0 0
25 1 1.2305 6.393865556140499 1.677 0 0 0
27 1 2.461 7.104295062378334 1.677 0 0 0
29 1 2.461 4.262577037427 1.677 0 0 0
31 1 3.6914999999999996 4.973006543664834 1.677 0 0 0
54 1 3.6914999999999996 6.393865556140499 1.677 0 0 0
56 1 4.922 7.104295062378334 1.677 0 0 0
58 1 4.922 4.262577037426999 1.677 0 0 0
60 1 6.1525 4.973006543664834 1.677 0 0 0
89 1 6.1525 6.393865556140499 1.677 0 0 0
91 1 7.383 7.104295062378334 1.677 0 0 0
93 1 7.382999999999999 4.262577037427 1.677 0 0 0
95 1 8.6135 4.973006543664834 1.677 0 0 0
124 1 8.6135 6.3938655561405 1.677 0 0 0
126 1 9.844 7.104295062378334 1.677 0 0 0
128 1 9.844 4.2625770374270004 1.677 0 0 0
130 1 11.074499999999999 4.973006543664834 1.677 0 0 0
159 1 11.074499999999999 6.393865556140499 1.677 0 0 0
161 1 12.305 7.104295062378334 1.677 0 0 0
163 1 12.305 4.262577037426999 1.677 0 0 0
165 1 13.535499999999999 4.973006543664834 1.677 0 0 0
194 1 13.535499999999999 6.393865556140499 1.677 0 0 0
196 1 14.765999999999998 7.104295062378332 1.677 0 0 0
198 1 14.766 4.262577037426999 1.677 0 0 0
21 1 0 8.525154074854 1.677 0 0 0
23 1 1.2304999999999997 9.235583581091834 1.677 0 0 0
46 1 1.2304999999999997 10.656442593567498 1.677 0 0 0
50 1 2.4609999999999994 8.525154074854 1.677 0 0 0
52 1 3.6915 9.235583581091834 1.677 0 0 0
81 1 3.6914999999999996 10.6564425935675 1.677 0 0 0
85 1 4.922 8.525154074854 1.677 0 0 0
87 1 6.1525 9.235583581091834 1.677 0 0 0
116 1 6.1525 10.6564425935675 1.677 0 0 0
120 1 7.383 8.525154074854 1.677 0 0 0
122 1 8.613499999999998 9.235583581091834 1.677 0 0 0
151 1 8.613499999999998 10.656442593567498 1.677 0 0 0
155 1 9.844 8.525154074853997 1.677 0 0 0
157 1 11.074499999999999 9.235583581091834 1.677 0 0 0
186 1 11.0745 10.656442593567498 1.677 0 0 0
190 1 12.305 8.525154074854 1.677 0 0 0
192 1 13.535499999999999 9.235583581091833 1.677 0 0 0
221 1 13.535499999999999 10.6564425935675 1.677 0 0 0
225 1 14.765999999999998 8.525154074854 1.677 0 0 0
19 1 0 11.366872099805333 1.677 0 0 0
42 1 0 12.787731112280998 1.677 0 0 0
44 1 1.2305000000000001 13.498160618518833 1.677 0 0 0
48 1 2.461 11.366872099805335 1.677 0 0 0
77 1 2.461 12.787731112280998 1.677 0 0 0
79 1 3.6915 13.498160618518833 1.677 0 0 0
83 1 4.922 11.366872099805333 1.677 0 0 0
112 1 4.922 12.787731112281 1.677 0 0 0
114 1 6.152499999999999 13.498160618518833 1.677 0 0 0
118 1 7.382999999999999 11.366872099805335 1.677 0 0 0
147 1 7.382999999999999 12.787731112280998 1.677 0 0 0
149 1 8.6135 13.498160618518835 1.677 0 0 0
153 1 9.844 11.366872099805335 1.677 0 0 0
182 1 9.844 12.787731112280998 1.677 0 0 0
184 1 11.074499999999999 13.498160618518833 1.677 0 0 0
188 1 12.304999999999998 11.366872099805333 1.677 0 0 0
217 1 12.305 12.787731112280998 1.677 0 0 0
219 1 13.535499999999999 13.498160618518837 1.677 0 0 0
223 1 14.765999999999998 11.366872099805336 1.677 0 0 0
252 1 14.765999999999998 12.787731112281 1.677 0 0 0
40 1 0 15.629449137232333 1.677 0 0 0
69 1 0 17.050308149708 1.677 0 0 0
71 1 1.2305000000000001 17.76073765594583 1.677 0 0 0
73 1 1.2305000000000001 14.919019630994498 1.677 0 0 0
75 1 2.4610000000000003 15.629449137232331 1.677 0 0 0
104 1 2.4610000000000003 17.050308149708 1.677 0 0 0
106 1 3.6914999999999996 17.76073765594583 1.677 0 0 0
108 1 3.6915 14.919019630994498 1.677 0 0 0
110 1 4.921999999999999 15.629449137232333 1.677 0 0 0
139 1 4.921999999999999 17.050308149708 1.677 0 0 0
141 1 6.1525 17.76073765594583 1.677 0 0 0
143 1 6.152499999999999 14.919019630994498 1.677 0 0 0
145 1 7.382999999999999 15.629449137232333 1.677 0 0 0
174 1 7.383 17.050308149708 1.677 0 0 0
176 1 8.613499999999998 17.76073765594583 1.677 0 0 0
178 1 8.6135 14.919019630994498 1.677 0 0 0
180 1 9.844 15.629449137232331 1.677 0 0 0
209 1 9.844 17.050308149708 1.677 0 0 0
211 1 11.0745 17.760737655945835 1.677 0 0 0
213 1 11.074499999999999 14.919019630994498 1.677 0 0 0
215 1 12.305 15.629449137232337 1.677 0 0 0
244 1 12.304999999999998 17.050308149708 1.677 0 0 0
246 1 13.5355 17.760737655945835 1.677 0 0 0
248 1 13.535499999999999 14.919019630994498 1.677 0 0 0
250 1 14.766 15.629449137232337 1.677 0 0 0
279 1 14.766 17.050308149708 1.677 0 0 0
2 1 0 1.420859012475665 5.031000000000001 0 0 0
4 1 0 0 5.031000000000001 0 0 0
11 1 1.2305 3.552147531189165 5.031000000000001 0 0 0
13 1 1.2305 2.1312885187135 5.031000000000001 0 0 0
15 1 2.461 1.420859012475665 5.031000000000001 0 0 0
17 1 2.461 0 5.031000000000001 0 0 0
32 1 3.6914999999999996 3.552147531189165 5.031000000000001 0 0 0
34 1 3.6914999999999996 2.1312885187135 5.031000000000001 0 0 0
386 1 0 2.8417180249513345 8.385 0 0 0
387 1 0 0 8.385 0 0 0
388 1 1.2305 0.7104295062378347 8.385 0 0 0
392 1 1.2305 2.1312885187135 8.385 0 0 0
393 1 2.461 2.8417180249513345 8.385 0 0 0
394 1 2.461 0 8.385 0 0 0
395 1 3.6915 0.7104295062378347 8.385 0 0 0
403 1 3.6914999999999996 2.1312885187135 8.385 0 0 0
36 1 4.922 1.420859012475665 5.031000000000001 0 0 0
38 1 4.922 0 5.031000000000001 0 0 0
61 1 6.1525 3.5521475311891653 5.031000000000001 0 0 0
63 1 6.1525 2.1312885187134993 5.031000000000001 0 0 0
65 1 7.382999999999999 1.420859012475666 5.031000000000001 0 0 0
67 1 7.382999999999999 0 5.031000000000001 0 0 0
404 1 4.922 2.841718024951334 8.385 0 0 0
405 1 4.922 0 8.385 0 0 0
406 1 6.1525 0.7104295062378343 8.385 0 0 0
418 1 6.1525 2.1312885187134993 8.385 0 0 0
419 1 7.382999999999999 2.8417180249513345 8.385 0 0 0
420 1 7.382999999999999 0 8.385 0 0 0
96 1 8.613499999999998 3.552147531189166 5.031000000000001 0 0 0
98 1 8.613499999999998 2.1312885187135002 5.031000000000001 0 0 0
100 1 9.844 1.420859012475666 5.031000000000001 0 0 0
102 1 9.844 0 5.031000000000001 0 0 0
131 1 11.0745 3.5521475311891644 5.031000000000001 0 0 0
133 1 11.0745 2.1312885187135002 5.031000000000001 0 0 0
421 1 8.613499999999998 0.7104295062378343 8.385 0 0 0
436 1 8.613499999999998 2.1312885187135002 8.385 0 0 0
437 1 9.844 2.8417180249513336 8.385 0 0 0
438 1 9.844 0 8.385 0 0 0
439 1 11.0745 0.7104295062378334 8.385 0 0 0
454 1 11.0745 2.1312885187135002 8.385 0 0 0
135 1 12.305 1.420859012475665 5.031000000000001 0 0 0
137 1 12.305 0 5.031000000000001 0 0 0
166 1 13.535499999999999 3.5521475311891653 5.031000000000001 0 0 0
168 1 13.535499999999999 2.1312885187134984 5.031000000000001 0 0 0
170 1 14.765999999999998 1.420859012475665 5.031000000000001 0 0 0
172 1 14.765999999999998 0 5.031000000000001 0 0 0
455 1 12.305 2.8417180249513336 8.385 0 0 0
456 1 12.305 0 8.385 0 0 0
457 1 13.535499999999999 0.7104295062378352 8.385 0 0 0
472 1 13.535499999999999 2.1312885187134984 8.385 0 0 0
473 1 14.765999999999998 2.8417180249513354 8.385 0 0 0
474 1 14.765999999999998 0 8.385 0 0 0
7 1 0 5.683436049902665 5.031000000000001 0 0 0
9 1 0 4.262577037427 5.031000000000001 0 0 0
26 1 1.2305 6.393865556140499 5.031000000000001 0 0 0
28 1 2.461 5.683436049902665 5.031000000000001 0 0 0
30 1 2.461 4.262577037427 5.031000000000001 0 0 0
55 1 3.6914999999999996 6.393865556140499 5.031000000000001 0 0 0
389 1 0 7.104295062378334 8.385 0 0 0
390 1 0 4.262577037427 8.385 0 0 0
391 1 1.2305000000000001 4.973006543664834 8.385 0 0 0
399 1 1.2305 6.393865556140499 8.385 0 0 0
400 1 2.461 7.104295062378334 8.385 0 0 0
401 1 2.461 4.262577037427 8.385 0 0 0
402 1 3.6914999999999996 4.973006543664834 8.385 0 0 0
414 1 3.6914999999999996 6.393865556140499 8.385 0 0 0
57 1 4.922 5.6834360499026655 5.031000000000001 0 0 0
59 1 4.922 4.262577037426999 5.031000000000001 0 0 0
90 1 6.1525 6.393865556140499 5.031000000000001 0 0 0
92 1 7.382999999999999 5.6834360499026655 5.031000000000001 0 0 0
94 1 7.382999999999999 4.262577037427 5.031000000000001 0 0 0
415 1 4.922 7.104295062378334 8.385 0 0 0
416 1 4.922 4.262577037426999 8.385 0 0 0
417 1 6.1525 4.973006543664834 8.385 0 0 0
432 1 6.1525 6.393865556140499 8.385 0 0 0
433 1 7.383 7.104295062378334 8.385 0 0 0
434 1 7.382999999999999 4.262577037427 8.385 0 0 0
125 1 8.6135 6.3938655561405 5.031000000000001 0 0 0
127 1 9.844 5.683436049902665 5.031000000000001 0 0 0
129 1 9.844 4.2625770374270004 5.031000000000001 0 0 0
160 1 11.074499999999999 6.393865556140499 5.031000000000001 0 0 0
435 1 8.6135 4.973006543664834 8.385 0 0 0
450 1 8.6135 6.3938655561405 8.385 0 0 0
451 1 9.844 7.104295062378334 8.385 0 0 0
452 1 9.844 4.2625770374270004 8.385 0 0 0
453 1 11.074499999999999 4.973006543664834 8.385 0 0 0
468 1 11.074499999999999 6.393865556140499 8.385 0 0 0
162 1 12.305 5.683436049902665 5.031000000000001 0 0 0
164 1 12.305 4.262577037426999 5.031000000000001 0 0 0
195 1 13.535499999999999 6.393865556140499 5.031000000000001 0 0 0
197 1 14.765999999999998 5.6834360499026655 5.031000000000001 0 0 0
199 1 14.766 4.262577037426999 5.031000000000001 0 0 0
469 1 12.305 7.104295062378334 8.385 0 0 0
470 1 12.305 4.262577037426999 8.385 0 0 0
471 1 13.535499999999999 4.973006543664834 8.385 0 0 0
486 1 13.535499999999999 6.393865556140499 8.385 0 0 0
487 1 14.765999999999998 7.104295062378332 8.385 0 0 0
488 1 14.766 4.262577037426999 8.385 0 0 0
20 1 0 9.946013087329664 5.031000000000001 0 0 0
22 1 0 8.525154074854 5.031000000000001 0 0 0
24 1 1.2304999999999997 7.814724568616164 5.031000000000001 0 0 0
47 1 1.2304999999999997 10.656442593567498 5.031000000000001 0 0 0
49 1 2.4609999999999994 9.946013087329664 5.031000000000001 0 0 0
51 1 2.4609999999999994 8.525154074854 5.031000000000001 0 0 0
53 1 3.6914999999999996 7.814724568616165 5.031000000000001 0 0 0
82 1 3.6914999999999996 10.6564425935675 5.031000000000001 0 0 0
397 1 0 8.525154074854 8.385 0 0 0
398 1 1.2304999999999997 9.235583581091834 8.385 0 0 0
410 1 1.2304999999999997 10.656442593567498 8.385 0 0 0
412 1 2.4609999999999994 8.525154074854 8.385 0 0 0
413 1 3.6915 9.235583581091834 8.385 0 0 0
428 1 3.6914999999999996 10.6564425935675 8.385 0 0 0
84 1 4.922 9.946013087329666 5.031000000000001 0 0 0
86 1 4.922 8.525154074854 5.031000000000001 0 0 0
88 1 6.1525 7.814724568616166 5.031000000000001 0 0 0
117 1 6.1525 10.6564425935675 5.031000000000001 0 0 0
119 1 7.383 9.946013087329664 5.031000000000001 0 0 0
121 1 7.383 8.525154074854 5.031000000000001 0 0 0
430 1 4.922 8.525154074854 8.385 0 0 0
431 1 6.1525 9.235583581091834 8.385 0 0 0
446 1 6.1525 10.6564425935675 8.385 0 0 0
448 1 7.383 8.525154074854 8.385 0 0 0
123 1 8.6135 7.814724568616164 5.031000000000001 0 0 0
152 1 8.613499999999998 10.656442593567498 5.031000000000001 0 0 0
154 1 9.844 9.946013087329664 5.031000000000001 0 0 0
156 1 9.844 8.525154074853997 5.031000000000001 0 0 0
158 1 11.0745 7.814724568616165 5.031000000000001 0 0 0
187 1 11.0745 10.656442593567498 5.031000000000001 0 0 0
449 1 8.613499999999998 9.235583581091834 8.385 0 0 0
464 1 8.613499999999998 10.656442593567498 8.385 0 0 0
466 1 9.844 8.525154074853997 8.385 0 0 0
467 1 11.074499999999999 9.235583581091834 8.385 0 0 0
482 1 11.0745 10.656442593567498 8.385 0 0 0
189 1 12.305 9.946013087329664 5.031000000000001 0 0 0
191 1 12.305 8.525154074854 5.031000000000001 0 0 0
193 1 13.535499999999999 7.814724568616165 5.031000000000001 0 0 0
222 1 13.535499999999999 10.6564425935675 5.031000000000001 0 0 0
224 1 14.765999999999998 9.94601308732966 5.031000000000001 0 0 0
226 1 14.765999999999998 8.525154074854 5.031000000000001 0 0 0
484 1 12.305 8.525154074854 8.385 0 0 0
485 1 13.535499999999999 9.235583581091833 8.385 0 0 0
500 1 13.535499999999999 10.6564425935675 8.385 0 0 0
502 1 14.765999999999998 8.525154074854 8.385 0 0 0
41 1 0 14.208590124756665 5.031000000000001 0 0 0
43 1 0 12.787731112280998 5.031000000000001 0 0 0
45 1 1.2304999999999997 12.077301606043164 5.031000000000001 0 0 0
76 1 2.461 14.208590124756665 5.031000000000001 0 0 0
78 1 2.461 12.787731112280998 5.031000000000001 0 0 0
80 1 3.6914999999999996 12.077301606043164 5.031000000000001 0 0 0
396 1 0 11.366872099805333 8.385 0 0 0
408 1 0 12.787731112280998 8.385 0 0 0
409 1 1.2305000000000001 13.498160618518833 8.385 0 0 0
411 1 2.461 11.366872099805335 8.385 0 0 0
426 1 2.461 12.787731112280998 8.385 0 0 0
427 1 3.6915 13.498160618518833 8.385 0 0 0
111 1 4.922 14.208590124756663 5.031000000000001 0 0 0
113 1 4.922 12.787731112281 5.031000000000001 0 0 0
115 1 6.1525 12.077301606043164 5.031000000000001 0 0 0
146 1 7.383 14.208590124756665 5.031000000000001 0 0 0
148 1 7.382999999999999 12.787731112280998 5.031000000000001 0 0 0
429 1 4.922 11.366872099805333 8.385 0 0 0
444 1 4.922 12.787731112281 8.385 0 0 0
445 1 6.152499999999999 13.498160618518833 8.385 0 0 0
447 1 7.382999999999999 11.366872099805335 8.385 0 0 0
462 1 7.382999999999999 12.787731112280998 8.385 0 0 0
150 1 8.6135 12.077301606043164 5.031000000000001 0 0 0
181 1 9.844 14.208590124756665 5.031000000000001 0 0 0
183 1 9.844 12.787731112280998 5.031000000000001 0 0 0
185 1 11.074499999999999 12.077301606043164 5.031000000000001 0 0 0
463 1 8.6135 13.498160618518835 8.385 0 0 0
465 1 9.844 11.366872099805335 8.385 0 0 0
480 1 9.844 12.787731112280998 8.385 0 0 0
481 1 11.074499999999999 13.498160618518833 8.385 0 0 0
216 1 12.304999999999998 14.208590124756661 5.031000000000001 0 0 0
218 1 12.305 12.787731112280998 5.031000000000001 0 0 0
220 1 13.535499999999999 12.07730160604316 5.031000000000001 0 0 0
251 1 14.765999999999998 14.208590124756661 5.031000000000001 0 0 0
253 1 14.765999999999998 12.787731112281 5.031000000000001 0 0 0
483 1 12.304999999999998 11.366872099805333 8.385 0 0 0
498 1 12.305 12.787731112280998 8.385 0 0 0
499 1 13.535499999999999 13.498160618518837 8.385 0 0 0
501 1 14.765999999999998 11.366872099805336 8.385 0 0 0
516 1 14.765999999999998 12.787731112281 8.385 0 0 0
70 1 0 17.050308149708 5.031000000000001 0 0 0
72 1 1.2305000000000001 16.339878643470165 5.031000000000001 0 0 0
74 1 1.2305000000000001 14.919019630994498 5.031000000000001 0 0 0
105 1 2.4610000000000003 17.050308149708 5.031000000000001 0 0 0
107 1 3.6915 16.339878643470165 5.031000000000001 0 0 0
109 1 3.6915 14.919019630994498 5.031000000000001 0 0 0
407 1 0 15.629449137232333 8.385 0 0 0
422 1 0 17.050308149708 8.385 0 0 0
423 1 1.2305000000000001 17.76073765594583 8.385 0 0 0
424 1 1.2305000000000001 14.919019630994498 8.385 0 0 0
425 1 2.4610000000000003 15.629449137232331 8.385 0 0 0
440 1 2.4610000000000003 17.050308149708 8.385 0 0 0
441 1 3.6914999999999996 17.76073765594583 8.385 0 0 0
442 1 3.6915 14.919019630994498 8.385 0 0 0
140 1 4.921999999999999 17.050308149708 5.031000000000001 0 0 0
142 1 6.1525 16.339878643470165 5.031000000000001 0 0 0
144 1 6.152499999999999 14.919019630994498 5.031000000000001 0 0 0
175 1 7.383 17.050308149708 5.031000000000001 0 0 0
443 1 4.921999999999999 15.629449137232333 8.385 0 0 0
458 1 4.921999999999999 17.050308149708 8.385 0 0 0
459 1 6.1525 17.76073765594583 8.385 0 0 0
460 1 6.152499999999999 14.919019630994498 8.385 0 0 0
461 1 7.382999999999999 15.629449137232333 8.385 0 0 0
476 1 7.383 17.050308149708 8.385 0 0 0
177 1 8.613499999999998 16.339878643470165 5.031000000000001 0 0 0
179 1 8.6135 14.919019630994498 5.031000000000001 0 0 0
210 1 9.844 17.050308149708 5.031000000000001 0 0 0
212 1 11.074499999999999 16.33987864347016 5.031000000000001 0 0 0
214 1 11.074499999999999 14.919019630994498 5.031000000000001 0 0 0
477 1 8.613499999999998 17.76073765594583 8.385 0 0 0
478 1 8.6135 14.919019630994498 8.385 0 0 0
479 1 9.844 15.629449137232331 8.385 0 0 0
494 1 9.844 17.050308149708 8.385 0 0 0
495 1 11.0745 17.760737655945835 8.385 0 0 0
496 1 11.074499999999999 14.919019630994498 8.385 0 0 0
245 1 12.304999999999998 17.050308149708 5.031000000000001 0 0 0
247 1 13.535499999999997 16.33987864347016 5.031000000000001 0 0 0
249 1 13.535499999999999 14.919019630994498 5.031000000000001 0 0 0
280 1 14.766 17.050308149708 5.031000000000001 0 0 0
497 1 12.305 15.629449137232337 8.385 0 0 0
512 1 12.304999999999998 17.050308149708 8.385 0 0 0
513 1 13.5355 17.760737655945835 8.385 0 0 0
514 1 13.535499999999999 14.919019630994498 8.385 0 0 0
515 1 14.766 15.629449137232337 8.385 0 0 0
530 1 14.766 17.050308149708 8.385 0 0 0
3212 2 1.1089650201099557 1.09510511292536 10.884085684717212 0 -1 0
4305 2 1.3581567496705256 1.0229542161252678 13.566124229708109 0 4 0
5686 2 3.1670533912785843 3.019659268410458 11.100440159535118 1 -1 0
7593 2 5.9842358241121545 2.625380328155721 11.199691106156864 0 2 0
6459 2 5.917166783746369 2.714406653889255 14.11486958958638 0 3 0
6737 2 15.191680942186673 9.993381359961512 17.190240763555316 1 6 0
2408 2 4.862325603222926 17.46487947993034 10.886368731135263 0 2 0
4529 2 11.187216768379951 1.7659957590275304 11.085257817335146 0 -1 -1
4414 2 13.858288265998933 1.5254839152345065 11.056722783010935 0 1 -1
5552 2 7.092348341343144 0.11838318460752736 11.096013584716195 1 0 0
4079 2 2.348418008121671 5.71993663839642 10.900244958637908 1 0 0
5500 2 13.504957063928446 16.362588328035287 13.988062423091657 0 -3 0
1715 2 7.896827701494703 4.957477524121519 10.95907187765915 0 1 1
6513 2 10.444322245319304 4.3899400193777876 11.14255387120961 1 2 0
6603 2 11.856086486528504 6.609295814376373 11.05917039485901 0 2 0
6522 2 8.841697247565374 14.959810918434275 13.835938778855393 0 -3 0
3429 2 2.4828075793211126 10.900028309854582 13.866474947818036 0 -2 0
3281 2 6.656072275686216 7.634220846613356 11.11334718195601 1 2 0
6666 2 3.81099267387247 8.0290050785232 11.20361884241444 0 1 0
3430 2 3.7081780633403065 8.492448259103856 13.91614945148582 0 1 0
5435 2 8.391019272051569 9.915390714542205 10.983690945104016 0 3 0
3130 2 11.140334894630055 9.287081796920463 11.157175449600594 0 0 0
5449 2 2.752405350180141 10.769875128235478 10.897166606726183 1 0 0
6674 2 0.010420261081788942 11.433358154189607 10.955581602722473 0 1 0
6713 2 4.410159891275235 12.927650063054328 11.06608393176836 0 -5 0
3177 2 4.426502542152386 12.949933333812726 13.942764443490326 0 1 0
6693 2 7.153092699444546 12.440324559373872 11.030256785188696 1 0 0
6898 2 12.698816468603843 11.556709812100689 11.120854461226312 0 1 0
4345 2 0.3406506514450739 16.219446473255502 11.076933836591557 0 -4 0
4247 2 3.012426593881088 15.328948741316445 11.08374874696346 0 1 0
2462 2 13.940671185539527 1.4480103420163262 13.906940495886307 0 0 0
5585 2 8.762926195829825 14.790727197162926 10.950565075436389 0 -1 0
3292 2 7.801466022650732 17.33101389859449 10.89478893282033 0 0 1
6528 2 7.669782876091208 17.60114695508851 13.754243361640953 0 -1 0
4626 2 11.58097740874419 14.019622075451057 11.204105703577044 0 1 0
6545 2 13.441319687899094 16.440944536482593 11.217748923791095 0 3 0
2464 2 2.998020521205594 3.342548240062801 14.081941590885846 0 -4 0
6907 2 11.0354148141655 0.45093016780150036 16.7794133952443 0 -3 0
6376 2 0.13459023491480898 15.809629971451876 14.055902674398991 0 0 0
2359 2 11.1807851078065 2.0805776227982733 13.823900067257862 0 3 0
6538 2 11.664802751010567 14.3356224377795 13.72836274171135 0 5 0
8285 2 2.157359056792666 5.922851778062098 13.628883010927458 1 0 0
5456 2 10.306521882442446 4.98484450183443 14.297253017553368 1 -2 0
6797 2 7.4628078822126245 5.172471193877589 13.846730031297268 0 1 0
3399 2 11.008812908615303 5.079364938000623 17.234095613694883 0 0 0
5469 2 12.194167292153976 6.94960454550877 13.514212310113274 0 -3 0
6343 2 10.046571064852044 14.989503779000332 16.725027084031986 0 2 0
3338 2 6.560930400567055 7.728292819651133 13.80528114347311 1 3 1
4418 2 8.119921558739401 9.827152248151776 13.66138121430683 1 -1 -1
4351 2 15.052010631440156 7.138281602050126 16.62991364155396 1 3 0
4506 2 15.578330503720952 3.675281577662674 14.144602248806912 0 2 0
8308 2 10.670356386656556 9.292676730093401 14.302890684777374 1 2 0
2380 2 15.126622777347263 11.012914507781016 14.676393594131214 0 -1 0
4416 2 7.255182941081695 12.520254064473956 13.820004472433476 1 4 -1
4317 2 14.88866378436497 6.378168008750501 13.98580007906203 0 1 0
6924 2 12.367674218782556 11.491012322579845 14.120527668202486 0 -2 0
6886 2 3.101681793292178 15.469343435568556 13.850990912584145 0 0 0
5649 2 5.008985686597221 17.72829885838515 13.958723129920996 0 -1 0
6778 2 14.070218557383908 0.4660028185020075 16.66524662961455 0 0 0
2461 2 14.852911261335771 6.135480531116526 10.847901328145122 1 2 0
3423 2 15.253023058212303 10.596362520654445 10.80624148616827 0 -3 0
3144 2 15.656527880993668 3.8675684998270086 16.996920706963877 1 3 0
6888 2 6.8666297108063805 0.16244521700372158 14.024153640370171 1 -3 0
4333 2 13.801483578665348 14.61535335536692 17.894426291438982 1 3 0
6462 2 12.751361169094496 0.5816486053320087 21.1657508473578 1 7 0
6745 2 15.730974933838818 0.2721262586838438 23.89660581018139 1 -2 0
6803 2 15.661565739672463 4.123507376864068 23.46349363833728 0 -3 0
6885 2 14.014921159186457 4.297490088856595 21.23289506233096 1 2 0
4167 2 15.45257655239704 17.341619562082897 18.96527042946269 1 2 0
4662 2 14.192178207945407 15.751884693826824 21.584573582482903 0 0 0
3461 2 14.295685318655215 7.170762299269147 21.154849433724667 0 3 0
7536 2 13.025168698623967 8.01083786504003 23.607319072269366 0 -1 1
8252 2 13.749261901924276 9.913669958228269 19.61518407129822 1 5 0
4685 2 13.793139678651878 16.22925926670865 26.914311268473664 1 3 0
4542 2 11.81646149580695 12.057186461872833 22.202106311215516 0 2 0
6496 2 13.522452658437457 12.753784388328015 20.059824227585082 1 0 0
4547 2 9.718688984291886 17.901093862121666 24.955685912309917 1 1 0
6703 2 11.390353844024862 15.967607140969504 21.123291339093743 1 3 -1
2493 2 13.858777368361558 17.07098081301445 23.970194941059702 1 1 0
4553 2 12.991578459088618 1.9244689778968844 24.300971817671005 1 5 0
5633 2 9.745755535567767 2.1037277880912026 21.15501476067264 1 0 0
6906 2 15.745312688585239 9.71310254660286 21.76180665648734 1 -1 0
4702 2 9.924974519853206 15.323476950012827 25.702973692757467 1 3 0
6661 2 9.974513392062171 14.211514530189506 22.94744395828829 0 2 0
4171 2 13.714462208903145 2.4512392191622685 18.90786942220923 1 2 0
5468 2 11.676431211421887 3.6144229188989896 22.517356026761234 1 0 0
4061 2 12.60754884932999 6.1659974339035095 27.006791383157637 1 5 -1
4267 2 13.156303968209523 10.578928539413255 24.307450116180227 1 3 0
4203 2 11.190215901863747 5.888890750498738 24.120509040602215 1 3 0
2471 2 12.801746014980242 14.095508880612593 24.641200626297312 1 1 0
2401 2 12.022415906776747 10.628201098586255 27.010136557510076 1 0 0
8270 2 11.893263382753979 13.454204311638094 27.334556753093466 0 0 -1
3204 2 15.469934287274796 13.151949338630368 23.838981173864138 0 3 0
6948 2 14.775571764377759 6.191342753518143 25.076613205930066 1 -2 0
8210 2 13.544598664229621 1.358690017900588 27.235592471094694 1 0 0
1717 2 13.261735073060795 5.714142501478662 18.369538688028026 0 0 0
1747 2 11.867520284091663 16.442559984122102 18.39450574398752 0 -1 0
7612 2 10.858472605690812 2.619351128737129 18.533322307464545 1 2 1
2397 2 13.54811790052447 1.3102397703272906 33.942046849650694 0 2 -1
4268 2 12.946823494074831 3.3873700696365634 30.582522413924398 0 -4 0
3393 2 13.468472505516559 8.426992058703103 28.094412484165197 0 2 0
5641 2 14.651688898605746 5.608974655520519 30.93488422281646 0 2 0
7581 2 12.297845538592211 17.669378511066316 28.567222900803422 0 0 1
4310 2 13.924191877924063 8.298251126113266 30.8170621937333 1 1 -1
4160 2 11.73372844311393 9.232446828697757 32.56343179721381 0 0 0
5695 2 13.299025966328639 8.965038010953474 35.03377204150113 0 -1 1
3452 2 14.560429654887733 12.993384028233608 28.410285480633746 1 7 0
5678 2 13.638839529976936 12.891162251837876 36.29671504342329 0 1 1
4116 2 11.357270687684217 14.977207647805152 29.492731877038 0 -1 0
6389 2 11.236118118334632 14.015931946167425 32.65868761586698 1 1 0
5441 2 14.575906096885385 16.23016538992125 33.26848461538693 0 -2 0
4137 2 13.78242764488516 14.475893042039246 30.984891884213408 0 1 0
8227 2 10.344261198987924 16.47225482869334 33.820909368687786 1 0 -1
4586 2 13.355263400624944 3.62544518070983 35.15265785788952 1 2 -1
6671 2 13.299177416503591 11.730645718089557 33.49035595432054 0 -2 0
6781 2 12.991293835979143 15.429017887562681 35.36341972767405 1 -2 0
8283 2 14.278947881783976 4.005955495315509 27.976732661967286 0 -3 -1
1788 2 15.444288890263397 4.283575868525197 33.52223418940208 0 0 1
1785 2 14.057348878753954 1.1328516394489545 31.338393002442494 1 4 0
4251 2 15.704661294933578 12.282877852448403 32.10753023559501 0 4 0
4130 2 15.430200310712491 17.204713784022474 30.799446158927413 1 2 0
3465 2 0.6741390201942592 5.485163821206081 42.45449463797114 1 0 0
4049 2 12.311048799353436 1.535078602569428 41.870742670520926 1 -1 -1
6408 2 12.14810513314215 9.079698742168585 37.53437066984956 0 -1 0
6283 2 12.287909079325818 6.452620789024522 38.373232113101345 1 7 0
4252 2 12.19217674562324 6.420380720099161 41.04207105966322 1 1 -1
6682 2 13.52984404992637 4.305436463968661 41.88638721685236 1 0 0
2384 2 15.398738549466685 5.725177811243199 38.96176075946093 0 3 0
2406 2 12.97884880813516 1.0438013924992982 39.139574232786536 0 0 0
5607 2 14.60598762913724 9.729802254905247 39.16228595160439 0 1 0
6481 2 13.48176765814328 17.715499432965558 37.45688607034778 0 -1 0
8282 2 12.642398197228637 11.981333561576161 38.662325628525245 1 -3 -1
6364 2 2.8361737075253584 15.346763739953293 42.08572072162559 1 -2 0
4292 2 11.448316821719397 16.047058214455337 44.63601207965437 1 2 0
4334 2 0.7849508806407968 5.50652289145812 45.33252781290006 1 1 0
6790 2 14.010461306296353 3.488274343807006 37.958760404420765 1 3 0
6668 2 2.687589785666447 15.545911987001858 44.752683152543156 1 -2 0
3324 2 13.656747668859452 16.87539168280203 40.028062623359034 0 2 0
4027 2 0.5494426940683784 10.2306149054688 44.706197357757674 1 -4 0
4101 2 8.468846391903883 15.599189572167857 41.4863911234634 1 0 0
4030 2 5.396656911480983 3.6486704489378083 41.99838858242731 1 2 -1
6428 2 5.217918411214767 3.518489772710417 44.79165597524134 1 -2 0
6614 2 8.29451336339461 3.9845324736187253 41.93559217316685 1 -2 0
8242 2 8.260799876800393 3.6756109500869605 44.78385346931026 1 2 0
2507 2 9.550497045761437 1.5619937784070517 42.13589036443578 1 0 0
3168 2 9.822854528375949 1.53654148720906 44.992470850019025 1 4 1
7525 2 12.610554474024914 1.5938043784176232 44.713831065828124 1 0 1
4113 2 3.4832204391380572 5.839291605010992 42.27657313865885 1 0 0
6268 2 3.6718594036840573 5.573979326724264 44.95230392332595 1 0 0
8183 2 9.448608878400028 6.688277865763914 41.90682178501535 1 -2 0
6939 2 9.174130965377357 6.275124029102402 44.87812796625059 1 -3 0
8198 2 11.952828894711692 6.462649248792619 45.19762959602193 1 0 0
6663 2 13.331217855197972 4.208320520558203 44.748861926752355 1 0 0
4193 2 11.305004730319965 16.02463288375365 41.85373340676494 1 0 0
5644 2 8.53675526220303 15.719270938330107 44.613915492926594 1 0 0
6796 2 4.541850578657678 8.354669052258803 42.26570370877517 1 1 0
4248 2 3.225751664735824 10.756848023128871 44.80786247955453 1 0 0
5526 2 2.9717398152514614 10.836105393738748 41.94463897727597 1 1 1
4369 2 4.587190152057635 8.53094668533809 44.98319556115584 1 3 0
4159 2 7.380902153956015 8.448137295926049 41.84613234882842 1 3 -1
6636 2 7.410154262125324 8.40667471282616 44.63360222228977 1 -2 0
8162 2 8.589252449799362 10.930638841652137 41.91868535364217 1 -6 0
4244 2 13.456886117442437 9.017171338757896 41.74279495529302 1 0 0
6328 2 13.19502892940166 8.911882779513013 44.63182083430182 1 1 0
4439 2 4.0967537289771085 17.912824948374794 41.857807242109445 1 -3 -1
4206 2 1.2455666549633888 0.612996696520517 42.289966320703506 1 1 -1
6554 2 4.422655501934153 13.279140583841421 41.993318615040415 1 -2 0
1804 2 4.269706721506486 13.233681461588636 44.977232837585746 1 2 0
8310 2 8.758087938922804 10.957078031897684 44.64403690237795 1 0 0
2505 2 7.343276636992271 13.3206394815433 42.052281063373954 1 0 0
8284 2 6.967941222885946 13.275915164659093 44.62960704174033 1 -4 0
2399 2 11.476923626145268 11.023554707721837 41.484747183498754 1 -2 0
4459 2 11.634824491753248 11.281835940086301 44.2013738972492 1 0 0
2396 2 12.722447493693664 13.725922039048907 41.854113612162735 1 0 0
5464 2 12.851667508995003 13.62009459485418 44.65480873461984 1 -1 1
6785 2 14.592870398582102 14.373457483352237 39.305551175448976 1 3 0
4554 2 6.840151130839232 17.778311583166932 41.93118594741147 1 1 -1
2419 2 3.7595985877456966 18.048613566356764 44.77868997134017 1 2 0
4693 2 3.924237145667984 1.0112331263422323 45.07833355511642 1 1 0
6563 2 15.528966569749409 13.6216023574588 44.75757908358074 1 -2 0
8222 2 4.143159709125263 0.8668297041422415 42.197628020706546 1 -2 0
4091 2 1.3776398203716835 0.7928120968103174 44.961869270448865 1 -1 0