
### Dimensions ###


### IMPORT ATOMS ###
read_data ../Box_Setup/data.Ibeam_240K
Reading data file ...
  orthogonal box = (0.0000000 0.0000000 0.0000000) to (157.50400 36.487659 45.872046)
  10 by 2 by 5 MPI processor grid
  reading atoms ...
  9436 atoms
  reading velocities ...
  9436 velocities
  read_data CPU = 0.095 seconds
group water type 2
2716 atoms in group water
group graphite type 1
6720 atoms in group graphite


# Define potential
#
pair_style          sw
pair_coeff * * MLC_e.sw C mW

# Add velocity/set timestep
#

fix		1 graphite setforce 0.0 0.0 0.0
velocity 	graphite set 0.0 0.0 0.0
velocity            water create ${START_TEMP} ${SEED} rot yes dist gaussian
velocity            water create 240 ${SEED} rot yes dist gaussian
velocity            water create 240 27303 rot yes dist gaussian
timestep            5.0

# Define output
#
compute 1 water msd
compute 2 water temp


thermo	            100
thermo_style custom step c_2 press vol etotal ke pe c_1[4] density

# Neighbor lists
#
neigh_modify        delay 0 every 1 check yes


# Set fixes
#
fix                 2 water momentum 10 linear 1 1 1 rescale
fix                 3 all nve
fix                 4 water temp/csvr ${START_TEMP} ${START_TEMP} 500.0 928347
fix                 4 water temp/csvr 240 ${START_TEMP} 500.0 928347
fix                 4 water temp/csvr 240 240 500.0 928347

# Run 0.05 ns equilibration
#
dump                1 all custom 100 ${DIR}/eq.${NAME}.dump id type x y z vx vy vz
dump                1 all custom 100 run_3/eq.${NAME}.dump id type x y z vx vy vz
dump                1 all custom 100 run_3/eq.ibeam_cooling_3.dump id type x y z vx vy vz
run                 10000
Neighbor list info ...
  update every 1 steps, delay 0 steps, check yes
  max neighbors/atom: 2000, page size: 100000
  master list distance cutoff = 6.6747184
  ghost atom cutoff = 6.6747184
  binsize = 3.3373592, bins = 48 11 14
  1 neighbor lists, perpetual/occasional/extra = 1 0 0
  (1) pair sw, perpetual
      attributes: full, newton on
      pair build: full/bin/atomonly
      stencil: full/bin/3d
      bin: standard
Per MPI rank memory allocation (min/avg/max) = 3.593 | 4.303 | 4.780 Mbytes
Step c_2 Press Volume TotEng KinEng PotEng c_1[4] Density 
       0          240   -384.81349    263624.46   -25860.227    1942.2958   -27802.523            0   0.81656126 
     100    234.22646   -253.38109    263624.46   -25860.576    1895.5712   -27756.147   0.82357219   0.81656126 
     200    234.90767   -199.42927    263624.46   -25869.628    1901.0841   -27770.712     1.239833   0.81656126 
     300    235.72358   -315.88309    263624.46   -25860.983    1907.6872   -27768.671    1.6867836   0.81656126 
     400    242.08565   -232.25597    263624.46   -25857.461    1959.1748   -27816.635    2.0594491   0.81656126 
     500    239.26124   -273.14798    263624.46   -25825.624    1936.3171   -27761.941     2.490502   0.81656126 
     600    240.68201   -190.61685    263624.46   -25749.905    1947.8153    -27697.72    2.9755993   0.81656126 
     700    242.29257   -431.29048    263624.46   -25756.098    1960.8493   -27716.947    3.5192858   0.81656126 
     800    244.30037   -297.43546    263624.46   -25742.445    1977.0983   -27719.544    4.0830949   0.81656126 
     900    240.84295    -264.1292    263624.46   -25773.981    1949.1178   -27723.099    4.5234609   0.81656126 
    1000    238.00157   -337.09028    263624.46   -25804.969    1926.1227   -27731.091    5.0411404   0.81656126 
    1100     241.3144   -300.53088    263624.46    -25785.84    1952.9331   -27738.773    5.3106954   0.81656126 
    1200    240.12042   -204.43053    263624.46   -25793.885    1943.2703   -27737.155    5.6117106   0.81656126 
    1300    242.78391   -280.05743    263624.46   -25742.076    1964.8257   -27706.901    5.9058754   0.81656126 
    1400    237.73785   -359.81409    263624.46   -25769.318    1923.9885   -27693.307    6.1781624   0.81656126 
    1500    239.62768   -191.09883    263624.46   -25790.585    1939.2827   -27729.868    6.5634985   0.81656126 
    1600    243.83978   -289.69943    263624.46   -25775.726    1973.3708   -27749.097    6.8979505   0.81656126 
    1700    235.33251   -298.71789    263624.46   -25790.162    1904.5223   -27694.684    7.3625617   0.81656126 
    1800    244.42566   -419.14994    263624.46   -25746.663    1978.1122   -27724.775    7.8591291   0.81656126 
    1900    247.40824   -208.82625    263624.46   -25709.755      2002.25   -27712.005    8.3549974   0.81656126 
    2000    246.69972   -265.25139    263624.46   -25692.793     1996.516   -27689.309    8.9166083   0.81656126 
    2100    240.40248   -190.94566    263624.46   -25801.175    1945.5531   -27746.728     9.318627   0.81656126 
    2200    241.14538   -295.64797    263624.46    -25772.85    1951.5653   -27724.416    9.8761107   0.81656126 
    2300    240.41663   -150.09775    263624.46   -25755.697    1945.6675   -27701.364    10.324131   0.81656126 
    2400    240.96141   -262.64582    263624.46   -25762.413    1950.0764    -27712.49    11.103233   0.81656126 
    2500    235.73529   -295.94995    263624.46   -25792.187     1907.782   -27699.969    11.462313   0.81656126 
    2600    238.15717   -313.42377    263624.46   -25798.363     1927.382   -27725.745    11.699651   0.81656126 
    2700    240.74665   -135.53564    263624.46   -25788.051    1948.3384    -27736.39    11.862687   0.81656126 
    2800    243.73679   -266.06276    263624.46   -25725.129    1972.5373   -27697.666    12.239288   0.81656126 
    2900    238.90323   -415.55307    263624.46   -25725.851    1933.4198   -27659.271    12.429746   0.81656126 
    3000    242.03799   -277.23795    263624.46   -25696.769     1958.789   -27655.558    12.808324   0.81656126 
    3100     243.9222   -195.41623    263624.46   -25696.626    1974.0378   -27670.663    13.171289   0.81656126 
    3200    243.39316   -312.10516    263624.46   -25768.866    1969.7563   -27738.622    13.814247   0.81656126 
    3300     236.7279   -260.39229    263624.46   -25868.431     1915.815   -27784.246    14.399263   0.81656126 
    3400    242.08864   -291.57304    263624.46   -25815.124     1959.199   -27774.323    14.808252   0.81656126 
    3500    238.95735   -184.36209    263624.46   -25806.343    1933.8578   -27740.201    15.367313   0.81656126 
    3600    240.06695   -234.40767    263624.46   -25790.747    1942.8376   -27733.584    15.679126   0.81656126 
    3700    241.32424   -288.82301    263624.46   -25755.066    1953.0127   -27708.078    16.126643   0.81656126 
    3800    241.19233   -359.07074    263624.46   -25738.224    1951.9453   -27690.169    16.929382   0.81656126 
    3900    247.24461   -192.18617    263624.46   -25741.906    2000.9257   -27742.832    17.493484   0.81656126 
    4000     236.7244   -321.14301    263624.46   -25793.181    1915.7867   -27708.967    18.128149   0.81656126 
    4100    242.24308   -393.36595    263624.46   -25785.518    1960.4489   -27745.967    18.590054   0.81656126 
    4200    244.45945   -303.68103    263624.46   -25768.825    1978.3857   -27747.211    18.969998   0.81656126 
    4300    240.86148   -225.33863    263624.46     -25831.3    1949.2677   -27780.568    19.320694   0.81656126 
    4400    236.08279   -160.72689    263624.46   -25784.089    1910.5943   -27694.684    19.737267   0.81656126 
    4500    238.93189   -332.58364    263624.46   -25813.193    1933.6517   -27746.844    20.179358   0.81656126 
    4600    236.06866   -250.27108    263624.46   -25851.051    1910.4799   -27761.531    20.777774   0.81656126 
    4700    238.92277    -281.7742    263624.46   -25787.612    1933.5779    -27721.19    21.179115   0.81656126 
    4800    245.42933   -289.11912    263624.46   -25755.284    1986.2348   -27741.519    22.020587   0.81656126 
    4900    243.07204   -377.13661    263624.46   -25681.165    1967.1575   -27648.323    22.641403   0.81656126 
    5000     238.8105     -357.501    263624.46   -25743.166    1932.6693   -27675.835    23.321637   0.81656126 
    5100    242.69363   -313.92427    263624.46   -25722.811    1964.0951   -27686.906    23.994041   0.81656126 
    5200    244.53074   -263.46574    263624.46   -25761.188    1978.9626    -27740.15    24.514978   0.81656126 
    5300    244.39594   -262.42591    263624.46   -25840.374    1977.8717   -27818.246    24.924533   0.81656126 
    5400    239.75808   -180.45638    263624.46    -25830.72     1940.338   -27771.058    25.495874   0.81656126 
    5500    238.69319   -127.40658    263624.46     -25816.2      1931.72    -27747.92    26.170132   0.81656126 
    5600     238.3155   -279.45251    263624.46   -25841.406    1928.6633    -27770.07    26.516586   0.81656126 
    5700    237.50138   -314.68365    263624.46   -25821.941    1922.0748   -27744.015    26.815082   0.81656126 
    5800    236.25269   -320.53478    263624.46   -25791.583    1911.9692   -27703.552    27.087826   0.81656126 
    5900    237.48866   -348.96774    263624.46   -25821.557    1921.9718   -27743.529    27.240844   0.81656126 
    6000    241.06061   -221.78797    263624.46   -25842.436    1950.8793   -27793.316    27.336152   0.81656126 
    6100    235.48581   -287.57078    263624.46    -25851.67    1905.7629   -27757.433    27.381018   0.81656126 
    6200    237.63544   -276.47549    263624.46   -25857.143    1923.1597   -27780.303    27.259949   0.81656126 
    6300     239.0558   -165.28624    263624.46   -25790.767    1934.6545   -27725.421    27.547456   0.81656126 
    6400    237.43631    -218.0127    263624.46     -25819.5    1921.5482   -27741.048    27.899266   0.81656126 
    6500    241.53625   -284.10717    263624.46   -25827.195    1954.7286   -27781.924    28.230841   0.81656126 
    6600    243.69434   -333.99298    263624.46   -25837.779    1972.1937   -27809.973    28.400897   0.81656126 
    6700    235.82919   -211.47802    263624.46   -25863.392    1908.5418   -27771.934    28.423711   0.81656126 
    6800     239.4981   -287.41334    263624.46   -25831.318     1938.234   -27769.552    28.609578   0.81656126 
    6900    240.24486    -320.9257    263624.46   -25790.767    1944.2775   -27735.044    28.945805   0.81656126 
    7000    238.76378   -265.91163    263624.46   -25791.067    1932.2912   -27723.358    29.059521   0.81656126 
    7100    235.65477   -279.47687    263624.46    -25804.23    1907.1303    -27711.36     29.39371   0.81656126 
    7200    237.01664   -377.02542    263624.46   -25881.846    1918.1518   -27799.998    29.647363   0.81656126 
    7300     228.1684   -270.19145    263624.46   -25928.782    1846.5439   -27775.326    29.953675   0.81656126 
    7400    237.76053   -163.05706    263624.46   -25873.522     1924.172   -27797.694    30.225455   0.81656126 
    7500    236.69571   -209.97655    263624.46   -25836.544    1915.5545   -27752.099     30.43564   0.81656126 
    7600    240.41418   -232.43003    263624.46   -25785.819    1945.6478   -27731.467    30.637333   0.81656126 
    7700    236.54145   -306.17655    263624.46   -25817.266    1914.3061   -27731.572    31.147144   0.81656126 
    7800    236.66223   -211.51268    263624.46   -25882.938    1915.2836   -27798.222    31.219208   0.81656126 
    7900     240.0057   -351.37991    263624.46   -25840.017     1942.342   -27782.359    31.523417   0.81656126 
    8000    235.95895   -329.37909    263624.46   -25775.927     1909.592   -27685.519    32.135064   0.81656126 
    8100    244.54481   -351.87312    263624.46   -25756.916    1979.0765   -27735.993    32.681918   0.81656126 
    8200    246.35391   -346.91808    263624.46    -25765.57    1993.7174   -27759.288    33.225393   0.81656126 
    8300    240.42731   -427.05158    263624.46   -25715.976     1945.754    -27661.73    33.603593   0.81656126 
    8400     247.4241   -215.17303    263624.46   -25700.323    2002.3784   -27702.701     33.95867   0.81656126 
    8500     239.9706   -226.74582    263624.46   -25732.993    1942.0579   -27675.051    34.261894   0.81656126 
    8600    239.31678   -153.09828    263624.46   -25735.462    1936.7666   -27672.229    34.648512   0.81656126 
    8700    237.83359   -289.46471    263624.46   -25756.222    1924.7633   -27680.985    34.923493   0.81656126 
    8800    237.01667   -312.91701    263624.46   -25764.124     1918.152   -27682.276    35.310273   0.81656126 
    8900    239.67119   -301.48351    263624.46   -25797.753    1939.6348   -27737.387    35.890522   0.81656126 
    9000    239.72696   -374.66019    263624.46   -25762.124    1940.0861    -27702.21    36.248465   0.81656126 
    9100    246.07739     -367.196    263624.46   -25773.458    1991.4795   -27764.937    36.589904   0.81656126 
    9200    238.91447   -107.22486    263624.46    -25716.15    1933.5108   -27649.661    36.948142   0.81656126 
    9300    237.32015   -168.27955    263624.46   -25792.659    1920.6081   -27713.267    37.645262   0.81656126 
    9400    237.73138   -356.84783    263624.46   -25775.118    1923.9361   -27699.054    38.239707   0.81656126 
    9500      238.536   -322.52914    263624.46   -25803.654    1930.4478   -27734.102    38.848707   0.81656126 
    9600    232.54566   -237.86368    263624.46   -25801.073    1881.9686   -27683.042     39.21798   0.81656126 
    9700    239.08384   -348.65008    263624.46   -25779.332    1934.8814   -27714.214    39.641592   0.81656126 
    9800     240.7629   -133.45616    263624.46   -25711.951    1948.4699   -27660.421    40.097485   0.81656126 
    9900     242.7809   -203.75401    263624.46   -25724.614    1964.8014   -27689.416    40.536426   0.81656126 
   10000    240.23764   -276.38496    263624.46   -25728.363     1944.219   -27672.582    41.116366   0.81656126 
Loop time of 30.6697 on 100 procs for 10000 steps with 9436 atoms

Performance: 140.856 ns/day, 0.170 hours/ns, 326.055 timesteps/s
97.6% CPU use with 100 MPI tasks x no OpenMP threads

MPI task timing breakdown:
Section |  min time  |  avg time  |  max time  |%varavg| %total
---------------------------------------------------------------
Pair    | 0.00050569 | 6.0353     | 27.743     | 356.7 | 19.68
Neigh   | 0.00046873 | 0.19632    | 0.84054    |  62.4 |  0.64
Comm    | 0.014544   | 9.3797     | 26.002     | 339.9 | 30.58
Output  | 0.17623    | 0.17643    | 0.18345    |   0.2 |  0.58
Modify  | 0.44955    | 14.726     | 30.353     | 353.4 | 48.01
Other   |            | 0.1564     |            |       |  0.51

Nlocal:        94.3600 ave         345 max           0 min
Histogram: 48 5 27 0 0 0 0 0 0 20
Nghost:        627.690 ave        1210 max           0 min
Histogram: 24 0 0 8 6 2 35 1 8 16
Neighs:         0.00000 ave           0 max           0 min
Histogram: 100 0 0 0 0 0 0 0 0 0
FullNghs:      9234.26 ave       42687 max           0 min
Histogram: 64 16 0 0 0 0 0 0 5 15

Total # of neighbors = 923426
Ave neighs/atom = 97.862018
Neighbor list builds = 584
Dangerous builds = 0
write_data 	    ${DIR}/data.${NAME}_eq
write_data 	    run_3/data.${NAME}_eq
write_data 	    run_3/data.ibeam_cooling_3_eq
System init for write_data ...

undump              1
unfix               4



################################################
#######         Run Simulation         #########
################################################

reset_timestep      0
timestep	    10.0
log                 ${DIR}/log.run_${NAME}
log                 run_3/log.run_${NAME}
log                 run_3/log.run_ibeam_cooling_3
