
# Set production fixes - Nose/Hoover
#
fix                 4 water temp/csvr ${START_TEMP} ${END_TEMP} 500.0 928347
fix                 4 water temp/csvr 240 ${END_TEMP} 500.0 928347
fix                 4 water temp/csvr 240 227 500.0 928347


## divide "droplet" into core and surface
#region		core_reg cylinder z 135 135 44.6 20 INF units box
#region		surface_reg cylinder z 135 135 44.6 20 INF units box side out
#group		core dynamic all region core_reg
#group		surface dynamic all region surface_reg

## compute pressure core
#compute        peratom_core core stress/atom NULL
#compute        p_core core reduce sum c_peratom_core[1] c_peratom_core[2] c_peratom_core[3]
#variable       press_core equal -(c_p_core[1]+c_p_core[2]+c_p_core[3])/(3*1249982.5)


## compute pressure surface
#compute        peratom_surf surface stress/atom NULL
#compute        p_surf surface reduce sum c_peratom_surf[1] c_peratom_surf[2] #c_peratom_surf[3]
#variable       press_surf equal -(c_p_surf[1]+c_p_surf[2]+c_p_surf[3])/(3*42395)

## compute total pressure of drop
compute        peratom water stress/atom NULL
compute        p water reduce sum c_peratom[1] c_peratom[2] c_peratom[3]
variable       press equal -(c_p[1]+c_p[2]+c_p[3])/(3*58301)


# compute order parameter
compute        3 all orientorder/atom nnn NULL cutoff 3.5

# compute center of mass of bridge
compute 	4 water com

# Run simulation
thermo_style        custom step c_2 press vol etotal ke pe v_press c_1[4] c_4[*]
thermo              200
dump		     1 water custom 400 ${DIR}/prod.${NAME}.dump id type x y z vx vy vz c_3[*] c_peratom[*]
dump		     1 water custom 400 run_3/prod.${NAME}.dump id type x y z vx vy vz c_3[*] c_peratom[*]
dump		     1 water custom 400 run_3/prod.ibeam_cooling_3.dump id type x y z vx vy vz c_3[*] c_peratom[*]
run                 ${STEPS}
run                 5200000
Neighbor list info ...
  update every 1 steps, delay 0 steps, check yes
  max neighbors/atom: 2000, page size: 100000
  master list distance cutoff = 6.6747184
  ghost atom cutoff = 6.6747184
  binsize = 3.3373592, bins = 48 11 14
  2 neighbor lists, perpetual/occasional/extra = 1 1 0
  (1) pair sw, perpetual
      attributes: full, newton on
      pair build: full/bin/atomonly
      stencil: full/bin/3d
      bin: standard
  (2) compute orientorder/atom, occasional, copy from (1)
      attributes: full, newton on
      pair build: copy
      stencil: none
      bin: none
Per MPI rank memory allocation (min/avg/max) = 6.098 | 6.627 | 7.309 Mbytes
Step c_2 Press Volume TotEng KinEng PotEng v_press c_1[4] c_4[1] c_4[2] c_4[3] 
       0    240.23764   -276.38496    263624.46   -25728.363     1944.219   -27672.582   -745.80672    41.116366    78.610534    18.376569    27.407457 
     200      239.152    -210.1874    263624.46   -25768.072     1935.433   -27703.505   -394.05209    43.638453    78.610534    18.378348    27.436257 
     400    237.21085   -159.87808    263624.46   -25741.977    1919.7235   -27661.701   -196.12563    45.084536    78.609749     18.38113    27.440747 
     600     240.6218   -159.17878    263624.46   -25619.207     1947.328   -27566.535   -203.49662    46.634847    78.612209    18.382594    27.425919 
     800    243.94841    -328.9057    263624.46    -25623.09    1974.2499    -27597.34   -951.99446    48.274418    78.612085    18.381387    27.431752 
    1000    239.92096   -319.60031    263624.46   -25674.299    1941.6562   -27615.955   -943.57628    49.621201    78.612919    18.381664    27.433847 
    1200    238.41669   -267.86921    263624.46   -25643.574    1929.4823   -27573.057   -688.73263    50.450766    78.613304     18.38459    27.475224 
    1400    240.61547   -198.57982    263624.46   -25674.789    1947.2768   -27622.066   -361.60926    52.037109    78.613973    18.387353    27.472795 
    1600    245.33968   -317.82239    263624.46   -25677.268    1985.5093   -27662.778   -889.27129    53.536713     78.61488    18.387251    27.483213 
    1800    238.11607   -320.29036    263624.46   -25679.211    1927.0494    -27606.26   -952.98257    56.132137    78.615812    18.387573    27.471852 
    2000    245.87101   -335.95193    263624.46    -25595.01    1989.8093    -27584.82   -999.41756    57.813936    78.616286    18.387903    27.479074 
    2200    242.43596   -390.55907    263624.46   -25648.831    1962.0098   -27610.841   -1297.8971    59.130428    78.615117    18.388207    27.476415 
    2400    245.84284   -430.20441    263624.46   -25636.266    1989.5814   -27625.847    -1390.362    61.034001    78.615812    18.389333    27.495705 
    2600    241.46083   -171.74936    263624.46   -25723.036    1954.1182   -27677.154   -246.66078     63.09456    78.614211    18.391668    27.480262 
    2800    243.32036    -139.3057    263624.46   -25622.014    1969.1671   -27591.181   -62.579196    64.093733    78.614436    18.390417    27.494182 
    3000    239.67581   -247.63179    263624.46   -25674.764    1939.6722   -27614.436     -576.614    64.043688    78.615134    18.389932    27.493658 
    3200    238.34097   -270.61992    263624.46   -25746.588    1928.8694   -27675.457   -721.00359    65.003131    78.615722    18.390562     27.50248 
    3400    232.83832   -370.61023    263624.46   -25734.565    1884.3371   -27618.902   -1159.5327    66.166938    78.617183    18.391372    27.502767 
    3600     241.1312   -490.21339    263624.46   -25697.936    1951.4505   -27649.387   -1640.5121    68.561878     78.61671    18.391263    27.502951 
    3800    239.20284    -272.0854    263624.46   -25664.933    1935.8445   -27600.777   -729.45836    68.995491    78.616755    18.392308    27.511655 
    4000     242.5825   -91.694048    263624.46   -25740.174    1963.1957    -27703.37    94.612885    70.575703    78.616145    18.390774    27.518811 
    4200    238.72995   -408.91708    263624.46   -25674.945    1932.0174   -27606.962   -1354.9095    71.730454    78.614989    18.392944    27.525941 
    4400    236.39545   -383.45281    263624.46    -25708.89    1913.1246   -27622.015   -1191.7857    73.573085    78.613625    18.393432    27.522586 
    4600    238.09584    -172.9254    263624.46   -25818.982    1926.8857   -27745.868   -248.08211    73.895751    78.614066    18.394645    27.540796 
    4800    244.35596   -235.11707    263624.46   -25698.937    1977.5482   -27676.485     -561.273    74.834314     78.61307    18.394794    27.557991 
    5000    239.10266   -393.50265    263624.46   -25707.795    1935.0338   -27642.829   -1249.0043    75.592716    78.612817    18.397407    27.588417 
    5200    240.95699   -239.04351    263624.46   -25717.829    1950.0406   -27667.869   -550.51098    77.546574    78.612648    18.395585     27.60378 
    5400    239.27664   -308.31949    263624.46   -25739.225    1936.4418   -27675.667   -902.22833    78.809599    78.611475    18.396194    27.597592 
    5600    233.94935   -281.33167    263624.46   -25770.374    1893.3285   -27663.702   -731.21273    81.320387     78.61114    18.396391    27.599985 
    5800     240.8212   -287.15882    263624.46    -25720.56    1948.9417   -27669.502    -771.4459    83.435242    78.610459    18.398345    27.584231 
    6000    239.54593   -162.92437    263624.46   -25742.935    1938.6211   -27681.556   -223.83747    85.684097    78.610615    18.400038    27.580058 
    6200    241.71112   -427.89696    263624.46   -25752.066    1956.1438    -27708.21   -1380.5421    88.042112    78.611902     18.40067    27.563683 
    6400    234.63142   -112.76349    263624.46   -25749.992    1898.8485    -27648.84   -38.184594    89.560424    78.613327    18.401022    27.568205 
    6600    240.54346   -299.93085    263624.46   -25738.705     1946.694   -27685.399   -824.70715    90.769268    78.615345    18.401356     27.55242 
    6800    241.34311   -83.860767    263624.46   -25746.807    1953.1654   -27699.972    141.88656     92.68521    78.616875    18.402412    27.539096 
    7000      239.363   -223.24214    263624.46   -25706.693    1937.1407   -27643.834   -482.76874    94.654625    78.616684    18.403279    27.529865 
    7200    241.56959   -266.97605    263624.46   -25835.023    1954.9984   -27790.021   -681.33962    94.834041    78.617618     18.40385    27.527678 
    7400    239.75382   -275.24219    263624.46   -25772.268    1940.3035   -27712.571   -740.06251     95.51648    78.618518    18.403423    27.521674 
    7600    245.31929   -281.37499    263624.46   -25679.746    1985.3443    -27665.09   -798.08338    95.828012     78.61988    18.404273    27.528451 
    7800    234.23173   -481.51693    263624.46   -25814.776    1895.6138   -27710.389   -1622.5296    97.285555    78.618524    18.402776    27.537902 
    8000    242.44943   -224.97779    263624.46   -25659.153    1962.1188   -27621.272   -540.26693    97.283326    78.616911    18.402482    27.547969 
    8200    250.48624   -321.66595    263624.46   -25679.898    2027.1599   -27707.058   -937.33612    98.828893    78.616958    18.401801    27.559155 
    8400    240.60924   -175.65504    263624.46   -25650.076    1947.2264   -27597.302   -303.35582    100.70327    78.614547    18.400784    27.592503 
    8600    242.26908   -277.87556    263624.46   -25741.303    1960.6592   -27701.962   -738.37356    101.89896    78.614064    18.398398    27.595091 
    8800    239.17257   -227.75626    263624.46    -25769.59    1935.5995   -27705.189   -493.32868    102.78096    78.612552    18.398078    27.610864 
    9000    241.30962   -441.37902    263624.46   -25751.705    1952.8944     -27704.6   -1450.8397    103.37813    78.612815    18.399225    27.618699 
    9200    240.65747   -224.93031    263624.46    -25707.06    1947.6167   -27654.677   -538.13968    104.61794     78.61338    18.399428    27.628212 
    9400    237.71801   -257.06008    263624.46   -25768.617    1923.8279   -27692.445   -681.28747    106.98174    78.614843    18.400309    27.624598 
    9600    242.46984   -175.06799    263624.46   -25755.731     1962.284   -27718.015   -292.44376    107.32804     78.61653    18.397863     27.63648 
    9800    238.75749   -295.86325    263624.46   -25643.185    1932.2403   -27575.425     -805.246    109.47311    78.617753    18.397552    27.639399 
   10000    244.01702   -267.42312    263624.46   -25699.286    1974.8051   -27674.091   -667.96193    110.82709    78.617319    18.400806    27.641688 
   10200    244.52423   -287.69929    263624.46   -25603.182      1978.91   -27582.092   -759.15561    112.19721    78.617614    18.402495    27.622223 
   10400    241.88702   -264.20544    263624.46   -25643.051    1957.5673   -27600.618   -682.69427    113.94379    78.618194    18.402198    27.633572 
   10600    241.49913   -239.92651    263624.46   -25712.483    1954.4281   -27666.911   -588.19407      114.972    78.616137     18.40413    27.634213 
   10800    233.97259   -399.06553    263624.46   -25811.652    1893.5166   -27705.168   -1269.1244    114.99121    78.613621    18.403872    27.627258 
   11000    231.77828   -190.98937    263624.46   -25795.153    1875.7583   -27670.911    -352.9182    115.63752    78.611212    18.402229    27.612126 
   11200    235.37669   -256.16983    263624.46   -25820.953    1904.8799   -27725.833   -617.82602    117.94243    78.611091    18.403706     27.62521 
   11400    233.99297   -270.99354    263624.46     -25763.1    1893.6816   -27656.781   -723.25675    119.54295    78.609915    18.406183    27.615005 
   11600    248.87323    -410.6204    263624.46   -25691.157     2014.106   -27705.263   -1341.2441     122.3501    78.608072    18.406993    27.605056 
   11800    241.62867   -356.73584    263624.46   -25655.065    1955.4765   -27610.541   -1056.8402    123.37079    78.606722    18.404807    27.599916 
   12000    241.06496    -362.7039    263624.46   -25645.783    1950.9144   -27596.698   -1080.3466    125.23315    78.606669    18.406362    27.620184 
   12200    246.41901   -316.05335    263624.46   -25647.338    1994.2442   -27641.582   -889.25341    126.63863    78.605672    18.409122    27.619939 
   12400    244.55277   -309.98483    263624.46    -25689.42     1979.141   -27668.561   -851.85797    126.68303    78.604185    18.411754    27.632957 
   12600    244.68755   -208.32393    263624.46   -25616.183    1980.2317   -27596.415   -398.67183    127.79281    78.602317    18.411424    27.632391 
   12800     241.6244   -268.40204    263624.46   -25679.567    1955.4419   -27635.009   -694.30783    129.72828    78.603228    18.410525    27.626608 
   13000    238.09385   -362.24215    263624.46   -25718.866    1926.8696   -27645.736   -1101.6967    130.75258     78.60321    18.407582    27.611524 
   13200    240.63904   -117.14779    263624.46   -25743.236    1947.4675   -27690.703    -10.77667    131.57477      78.6017    18.407344    27.645033 
   13400    230.07359    -254.6586    263624.46   -25831.102    1861.9624   -27693.064     -613.553    134.30688    78.601654    18.406481    27.640237 
   13600    242.22556   -131.16655    263624.46   -25806.288     1960.307   -27766.595   -37.264433    135.26802    78.601171    18.408579    27.659654 
   13800    240.95018   -231.40331    263624.46    -25729.05    1949.9856   -27679.036   -510.79652    136.50066    78.603775    18.408513    27.664308 
   14000    239.91392   -238.05263    263624.46   -25671.055    1941.5992   -27612.654   -519.92593    137.87656    78.603034    18.408393     27.65701 
   14200    240.15373   -399.69625    263624.46   -25732.492    1943.5399   -27676.032   -1274.7701    139.38558    78.602979    18.406982    27.656941 
   14400    240.06221   -232.19431    263624.46   -25770.675    1942.7993   -27713.475   -526.20114    140.91764    78.601735    18.405785     27.66034 
   14600      237.208   -287.19787    263624.46   -25761.555    1919.7004   -27681.255   -800.86064    142.27115    78.601911    18.404284    27.656044 
   14800    240.01795   -194.79643    263624.46   -25725.346    1942.4411   -27667.787   -381.68386    142.89464    78.602934    18.405775     27.65192 
   15000    234.99017   -266.91541    263624.46     -25735.2    1901.7518   -27636.952   -704.53576    144.20459     78.60246    18.405419     27.65962 
   15200    241.80526   -151.67316    263624.46   -25701.618    1956.9056   -27658.524   -170.31451    145.02985    78.602104    18.406939    27.650198 
   15400    239.17742   -366.86646    263624.46    -25728.21    1935.6387   -27663.848   -1126.2033    146.64728    78.602592    18.410048    27.655406 
   15600    244.62277   -208.63368    263624.46   -25633.917    1979.7075   -27613.625   -436.01553    149.00102    78.602448    18.410502    27.650664 
   15800    240.80559   -300.66587    263624.46   -25645.565    1948.8154    -27594.38     -851.869     150.5765    78.602025    18.409366    27.650225 
   16000    242.94559   -149.54123    263624.46   -25680.645    1966.1342   -27646.779   -156.33007    152.74607    78.602109    18.410772    27.642547 
   16200    240.80859    -246.7891    263624.46   -25696.028    1948.8396   -27644.868   -587.70968    154.71372    78.600347     18.41175    27.640367 
   16400    237.43618   -234.59699    263624.46   -25741.421    1921.5471   -27662.968   -522.01455     156.2794     78.59903    18.413783    27.648473 
   16600    238.58843   -309.49468    263624.46    -25648.86    1930.8721   -27579.733   -868.63658    156.18915    78.598335    18.414488    27.669225 
   16800    242.68445   -306.62114    263624.46   -25696.782    1964.0208   -27660.803   -918.88066    158.15374    78.598509    18.415085    27.658137 
   17000    237.55034   -407.22332    263624.46   -25819.337     1922.471   -27741.807   -1306.1155    158.67411    78.599566    18.414298    27.661258 
   17200    239.99936   -210.11234    263624.46   -25825.569    1942.2907    -27767.86   -389.88475    159.88111    78.599065    18.413825    27.659253 
   17400    236.05642   -330.77999    263624.46   -25896.412    1910.3808   -27806.793   -974.24032    160.52789    78.599701    18.416026    27.652444 
   17600     236.8887   -197.70409    263624.46   -25807.464    1917.1164   -27724.581   -365.95504    162.93668    78.599093     18.41434    27.657869 
   17800    240.62356   -231.15217    263624.46   -25797.576    1947.3422   -27744.918   -532.33284    164.93964    78.597212    18.411475    27.660159 
   18000    235.10686   -334.52962    263624.46   -25714.568    1902.6962   -27617.265   -1001.6911    167.94578    78.595967    18.410002    27.661173 
   18200    241.85964   -202.19714    263624.46   -25727.231    1957.3457   -27684.576   -403.26536    169.12387    78.594232    18.405913    27.665078 
   18400    237.80585   -253.33114    263624.46   -25679.334    1924.5388   -27603.873   -649.51297    169.61007    78.596123    18.404287    27.664177 
   18600    240.46308   -351.94561    263624.46   -25636.985    1946.0435   -27583.029    -1065.493    170.67753    78.596769    18.406399    27.667012 
   18800    243.46129   -300.83654    263624.46   -25715.599    1970.3077   -27685.907   -801.29584    171.34111     78.59762    18.407251    27.664592 
   19000     240.1482   -206.47607    263624.46   -25630.271    1943.4952   -27573.766   -430.88097    171.23513    78.598864    18.405851    27.665638 
   19200    238.34996   -204.66412    263624.46   -25669.739    1928.9422   -27598.681   -381.16143      173.136    78.596256    18.405704    27.672362 
   19400    243.20485   -315.13905    263624.46   -25560.112    1968.2323   -27528.344   -917.88106    173.47889    78.595787    18.407002    27.671193 
   19600    241.10036   -305.27125    263624.46   -25590.557     1951.201   -27541.758   -860.50548    175.18778    78.596983    18.407311    27.662652 
   19800    242.00714   -305.41683    263624.46   -25607.805    1958.5394   -27566.344   -844.40943    175.81534    78.595561    18.406365    27.682932 
   20000    235.64414   -265.78415    263624.46   -25604.439    1907.0443   -27511.483   -662.39935    176.27895    78.595967    18.402371    27.670458 
   20200    236.95648   -282.44863    263624.46   -25683.027     1917.665   -27600.692   -738.65208    178.08519    78.596425    18.400955     27.66973 
   20400    239.10682   -375.30214    263624.46   -25595.604    1935.0674   -27530.671   -1191.7981     180.5289    78.596191     18.40185    27.666233 
   20600     237.1396   -186.34901    263624.46   -25693.005    1919.1469   -27612.151   -315.57299    181.67399    78.599169    18.401723    27.662923 
   20800    241.96634   -275.32024    263624.46   -25610.546    1958.2092   -27568.755   -700.67621     183.2237    78.600811    18.401359    27.651155 
   21000    241.14505   -299.81313    263624.46   -25621.254    1951.5626   -27572.817   -805.00485    184.99141    78.599877    18.402643    27.662535 
   21200    243.79273   -374.86652    263624.46   -25662.699      1972.99   -27635.689   -1164.0335     187.3418    78.600611    18.403042    27.659784 
   21400    237.98653   -217.32123    263624.46    -25672.47     1926.001   -27598.471   -466.81347    187.97797    78.597975    18.404426    27.665216 
   21600    243.00804   -346.88051    263624.46   -25540.728    1966.6396   -27507.367   -1057.5739    189.85845     78.59786    18.403012    27.667379 
   21800    235.95167   -121.29809    263624.46   -25651.013    1909.5331   -27560.546   -11.469149    190.45368    78.598077     18.40252    27.671536 
   22000    238.69996   -303.83177    263624.46   -25715.729    1931.7747   -27647.503   -815.96471    191.17494    78.598171    18.402175    27.676534 
   22200    232.00517   -343.91056    263624.46   -25760.746    1877.5945   -27638.341   -1033.7418     192.9724    78.598592    18.400911    27.664388 
   22400    239.61028   -239.72407    263624.46   -25644.055    1939.1418   -27583.197   -576.77575     194.7672    78.599194    18.399976    27.666979 
   22600    241.56393   -147.42387    263624.46   -25688.704    1954.9526   -27643.657   -163.99006    195.49944    78.598787    18.399837    27.675116 
   22800    244.73733   -126.90292    263624.46   -25675.569    1980.6345   -27656.204   -103.67219    195.65132    78.599241    18.398341    27.671833 
   23000    238.05513   -162.16223    263624.46   -25696.045    1926.5562   -27622.601   -212.05287    198.09307    78.598447    18.394929    27.671165 
   23200    244.18666    -284.8982    263624.46   -25626.708    1976.1781   -27602.886   -740.24521    199.44504    78.598599    18.394043    27.652941 
   23400    241.15763   -245.35261    263624.46   -25614.874    1951.6644   -27566.538   -602.58972    201.12346    78.599963    18.393459    27.643597 
   23600    244.39303   -236.46237    263624.46   -25572.168    1977.8482   -27550.016   -539.18594    202.47352    78.601206    18.392279    27.656813 
   23800    240.85666    -146.3065    263624.46   -25575.599    1949.2287   -27524.827   -165.86241    204.85151    78.601355    18.391116     27.65707 
   24000    237.19566   -230.15312    263624.46   -25606.475    1919.6006   -27526.075   -560.57745    207.60277    78.602192    18.393013    27.639021 
   24200    242.31267   -301.20218    263624.46    -25646.23     1961.012   -27607.242   -864.16728    210.57814    78.603001    18.392434    27.635363 
   24400    240.29344   -253.23318    263624.46   -25724.601    1944.6706   -27669.272   -642.02314      212.142    78.603901    18.392308    27.630761 
   24600    235.60195   -306.16976    263624.46   -25761.958    1906.7029   -27668.661    -895.6972    212.99523     78.60377    18.393058    27.632737 
   24800    239.89668   -65.651762    263624.46   -25761.784    1941.4596   -27703.244    225.36248    215.83764     78.60358    18.393141    27.635478 
   25000     236.6052   -188.58121    263624.46   -25757.056    1914.8221   -27671.878   -333.16807    218.43739    78.603137    18.392368    27.621725 
   25200     234.0103   -398.20686    263624.46   -25815.206    1893.8218   -27709.028   -1298.1571    220.03362    78.603169    18.390184    27.587399 
   25400    240.85841   -190.73691    263624.46    -25728.23    1949.2428   -27677.472   -375.16707    222.49858      78.6014    18.389899     27.58425 
   25600    245.89517    -186.9399    263624.46   -25606.516    1990.0049   -27596.521   -330.94629    224.11321    78.600664    18.388321    27.601533 
   25800    246.87701   -255.00095    263624.46   -25576.659    1997.9508    -27574.61   -653.94804    226.71614    78.600698    18.386784    27.592888 
   26000    239.85849   -241.03419    263624.46   -25598.351    1941.1506   -27539.501   -613.16839    229.26508    78.601243    18.384851    27.589944 
   26200    239.34938   -337.13878    263624.46   -25649.306    1937.0304   -27586.337   -1007.2773    231.63946    78.602145    18.383544    27.600972 
   26400    237.20255   -176.73421    263624.46   -25729.962    1919.6563   -27649.618   -307.28292    232.25632    78.603578    18.385439    27.603337 
   26600    240.77591   -355.34144    263624.46   -25613.123    1948.5752   -27561.698   -1115.8912    234.30373    78.604129    18.384461    27.627807 
   26800    236.26731   -269.29244    263624.46   -25628.777    1912.0876   -27540.864   -707.47902    234.57691    78.603883    18.385009    27.639463 
   27000    244.49386   -245.38088    263624.46   -25616.794    1978.6642   -27595.458   -581.23283    236.64739    78.604002    18.388834    27.658982 
   27200    238.23269   -249.56304    263624.46   -25617.254    1927.9931   -27545.247   -646.63194    238.13068    78.605536    18.391854    27.649514 
   27400    234.66202   -271.07035    263624.46   -25612.234    1899.0961    -27511.33   -723.11201      240.427    78.604856    18.393083    27.623848 
   27600    242.07958   -145.52289    263624.46   -25760.406    1959.1256   -27719.531   -168.82232    242.44437    78.606282    18.391874    27.614362 
   27800      241.725   -293.67718    263624.46   -25617.965    1956.2561   -27574.222   -822.44408    244.92066    78.605972    18.389585    27.610798 
   28000    233.92156   -252.05925    263624.46   -25753.093    1893.1037   -27646.196   -625.68927    246.20061    78.606423    18.387324    27.588964 
   28200    238.64878   -306.75001    263624.46   -25709.825    1931.3606   -27641.185   -829.41328     246.4173    78.605959    18.387091    27.606283 
   28400    241.69567   -320.68606    263624.46   -25690.613    1956.0187   -27646.631   -922.90208    247.60748     78.60644    18.387993    27.585835 
   28600    234.92201     -306.536    263624.46   -25743.609    1901.2002   -27644.809   -894.69224    249.15665    78.606908    18.386976      27.5988 
   28800    240.25233   -189.64761    263624.46   -25750.279    1944.3379   -27694.617   -361.34467    250.95747    78.607239    18.387159    27.598039 
   29000    241.63415   -279.49838    263624.46   -25685.228    1955.5209   -27640.749   -749.21569    253.17042    78.606805    18.385018    27.598642 
   29200    243.68362   -380.95344    263624.46   -25680.953     1972.107    -27653.06   -1213.4665    256.85658    78.608354    18.386777    27.600232 
   29400    242.62048   -254.79921    263624.46    -25728.92    1963.5031   -27692.424   -634.07957    259.11952    78.606213    18.384922    27.616713 
   29600    240.19657   -267.22848    263624.46   -25682.688    1943.8866   -27626.575   -676.64491    261.65408     78.60565    18.384097    27.622008 
   29800     235.3642   -182.73676    263624.46   -25802.779    1904.7788   -27707.558   -327.71175    262.24707    78.605494    18.386707    27.607618 
   30000    232.36408   -224.45363    263624.46   -25817.495    1880.4991   -27697.994   -474.71517    262.25957    78.607666    18.386309     27.62626 
   30200    239.38377   -260.03733    263624.46   -25780.892    1937.3087   -27718.201   -668.21688    261.25453    78.606223    18.385817    27.619159 
   30400    242.46026   -109.21841    263624.46   -25750.805    1962.2065   -27713.011   -29.985103    264.15345    78.606118    18.383364    27.610636 
   30600    237.13783     -185.095    263624.46   -25782.176    1919.1326   -27701.309   -349.65825    263.59787    78.605918    18.382943    27.613823 
   30800    238.43985   -375.10337    263624.46   -25767.712    1929.6697   -27697.381   -1175.7788    264.88218    78.607303    18.382286    27.614364 
   31000    244.65999   -209.16494    263624.46   -25733.991    1980.0087       -27714   -426.87924    268.08383    78.607388    18.381404    27.616216 
   31200    237.57968   -262.11368    263624.46   -25722.148    1922.7084   -27644.856   -682.31948     270.5777    78.610222    18.382206    27.623114 
   31400    238.73092   -280.72108    263624.46   -25732.882    1932.0253   -27664.907   -764.94573    269.13766    78.610444    18.382389    27.624761 
   31600    236.45796   -186.27148    263624.46    -25719.56    1913.6304   -27633.191   -347.00247    269.37287    78.611277    18.382245    27.640311 
   31800    243.33588   -228.22372    263624.46   -25664.552    1969.2927   -27633.845   -511.58408    269.55166    78.609406    18.381316    27.632954 
   32000    238.99616   -431.98119    263624.46   -25780.171    1934.1719   -27714.343   -1426.2986    270.24955    78.610536    18.381811    27.625177 
   32200    238.53121   -88.395274    263624.46   -25872.985     1930.409   -27803.394    111.24727    270.48779    78.611278    18.382462    27.617021 
   32400     241.5701   -234.27296    263624.46   -25803.403    1955.0025   -27758.405   -567.33802    271.49006    78.611328    18.381994    27.591249 
   32600    241.35647   -254.16114    263624.46   -25697.394    1953.2736   -27650.667   -584.29282    271.98063    78.610721    18.381941    27.584549 
   32800    246.56548   -236.23733    263624.46   -25682.835    1995.4296   -27678.264   -555.66234    272.75851    78.609537    18.381059    27.582106 
   33000    242.68328   -354.32829    263624.46   -25695.662    1964.0113   -27659.673   -1093.5548     275.4019    78.610268    18.381364    27.571998 
   33200    236.60847   -285.98355    263624.46   -25734.237    1914.8485   -27649.086   -751.22362    274.22932    78.609147     18.38403    27.558209 
   33400    238.13909   -329.74859    263624.46   -25702.474    1927.2357   -27629.709   -1010.7963    274.61964     78.60977    18.385685    27.546323 
   33600    238.93785   -114.97538    263624.46   -25738.538    1933.6999   -27672.238    11.496653    275.69313    78.609436    18.386441    27.539126 
   33800    247.44418   -381.35927    263624.46   -25606.132    2002.5408   -27608.673   -1201.9861    278.08519    78.609369    18.387308    27.523713 
   34000    234.97796   -363.66107    263624.46   -25709.706    1901.6529   -27611.359   -1121.2588    280.37508    78.609793    18.388086    27.522408 
   34200    240.20788   -260.90697    263624.46   -25723.672    1943.9782    -27667.65   -686.88252    282.13245     78.60733    18.388761    27.519344 
   34400    241.63496   -232.42742    263624.46   -25772.338    1955.5274   -27727.865   -563.59252    284.78879    78.607049    18.390391    27.501614 
   34600    245.99796   -321.62698    263624.46   -25636.609    1990.8367   -27627.445    -927.9472    288.47912    78.606581    18.388442    27.501654 
   34800     241.1599   -311.94113    263624.46    -25719.99    1951.6828   -27671.673    -941.1475    290.12413    78.606141    18.389158    27.514573 
   35000    239.10514   -184.67686    263624.46   -25746.201    1935.0538   -27681.255   -295.71689    292.92253    78.606913    18.388795    27.502365 
   35200    245.92436   -210.52374    263624.46   -25666.595    1990.2411   -27656.836   -460.62855    295.70307    78.607044    18.389784    27.529313 
   35400    240.79143   -71.738591    263624.46   -25720.769    1948.7008    -27669.47    164.40784    297.09795    78.607648    18.388133    27.518282 
   35600    240.60081   -262.35472    263624.46   -25699.899    1947.1581   -27647.057   -642.46831    297.86042    78.606862    18.388428    27.507015 
   35800    242.32492   -264.83994    263624.46   -25551.275    1961.1112   -27512.387   -704.54765    298.06998     78.60742    18.387038    27.506162 
   36000     239.0738   -321.81757    263624.46   -25695.387    1934.8002   -27630.187    -964.9107    298.38849    78.607294    18.388688    27.498763 
   36200     237.9663   -339.61754    263624.46    -25677.68    1925.8373   -27603.517   -1014.3536    298.29233    78.608209    18.389697    27.510729 
   36400    236.29816   -182.58095    263624.46    -25698.45    1912.3372   -27610.787   -381.97741    297.95592    78.608391    18.390193    27.498019 
   36600    241.55583    -243.8598    263624.46   -25660.112     1954.887   -27614.999   -576.90539    297.81608    78.607617    18.393371    27.505598 
   36800    234.26101   -247.20432    263624.46   -25765.644    1895.8508   -27661.495   -599.34193    296.73357    78.606885    18.392178    27.490157 
   37000    242.08177   -318.69834    263624.46   -25683.683    1959.1433   -27642.826   -925.01971    299.51301    78.605222    18.392733    27.473132 
   37200    237.54494    -246.3802    263624.46   -25759.263    1922.4272    -27681.69    -577.7398    301.65104    78.605176     18.39102    27.449235 
   37400    229.23741   -407.97472    263624.46   -25769.523    1855.1953   -27624.718   -1335.3424     303.1455    78.605472    18.392101    27.459137 
   37600     236.6198   -428.73691    263624.46   -25746.796    1914.9402   -27661.736   -1445.9723    303.36937     78.60716    18.392777    27.459754 
   37800    236.74964   -221.31051    263624.46   -25834.687     1915.991   -27750.678   -490.74714    303.77825    78.606653    18.394399    27.451981 
   38000    239.47465    -241.7577    263624.46   -25710.829    1938.0442   -27648.874    -548.1982    303.95524    78.607371    18.396036    27.425041 
   38200    242.39238   -310.01167    263624.46   -25702.204    1961.6572   -27663.862   -886.91147    303.03008     78.60747    18.396253    27.422438 
   38400    240.34212   -284.12541    263624.46   -25692.685    1945.0646   -27637.749   -765.38825     304.5916    78.608242    18.395838      27.4287 
   38600    242.31168    -200.7316    263624.46    -25749.14     1961.004   -27710.144   -389.83023    307.69049    78.608341    18.396071    27.436237 
   38800     236.8926   -483.42046    263624.46   -25804.478    1917.1479   -27721.626    -1658.902    311.05359    78.607707    18.397075    27.445323 
   39000    238.42595   -267.14537    263624.46   -25689.246    1929.5572   -27618.803   -710.81319    311.28608    78.608442    18.398567    27.436689 
   39200    235.77862   -475.60503    263624.46   -25784.547    1908.1326    -27692.68   -1711.7495     312.5043    78.609138    18.397878    27.434132 
   39400     244.8591   -92.902104    263624.46   -25692.381      1981.62   -27674.001     68.73305    312.84386    78.609523    18.398155    27.446262 
   39600    244.82794   -263.43166    263624.46   -25681.247    1981.3679   -27662.614    -658.3015     313.7146    78.610286    18.396712    27.447878 
   39800    237.04624   -277.00019    263624.46   -25731.374    1918.3914   -27649.766   -768.55857    314.87017     78.61187    18.396368    27.456697 
   40000    232.34734   -301.71639    263624.46   -25694.544    1880.3636   -27574.908    -835.4741    316.02425    78.611754    18.396171    27.455988 
   40200    244.46629   -257.53881    263624.46    -25653.14    1978.4411   -27631.581     -650.372    317.87098    78.609314    18.395242    27.455828 
   40400    240.09195    -155.1088    263624.46   -25754.022      1943.04   -27697.062    -207.1716    319.62633    78.608919    18.394826    27.461565 
   40600    243.41383   -269.40282    263624.46   -25724.998    1969.9236   -27694.922   -718.15633    322.03534    78.609037     18.39257    27.453212 
   40800    235.16804   -268.02483    263624.46   -25764.508    1903.1913   -27667.699   -731.74173    322.62919    78.609388     18.39259    27.441756 
   41000    238.81251   -233.13411    263624.46   -25809.279    1932.6856   -27741.964   -565.49921    324.03438    78.607895    18.393395    27.453514 
   41200    241.73302   -357.71229    263624.46   -25689.583     1956.321   -27645.904   -1128.9346    325.46133    78.606699    18.392121    27.462923 
   41400    238.02211   -198.46178    263624.46    -25747.21    1926.2889   -27673.499   -375.25444    328.99609    78.606018    18.390912     27.46435 
   41600    243.53649   -301.55716    263624.46   -25726.494    1970.9163    -27697.41   -842.35745    329.45623    78.605111    18.393134      27.4408 
   41800    246.84747   -200.88276    263624.46   -25769.643    1997.7117   -27767.355   -361.79966    329.97397    78.603337     18.39185     27.43465 
   42000    233.39641   -220.04794    263624.46   -25795.352    1888.8537   -27684.206   -502.05616    329.15722    78.604304    18.392842    27.421467 
   42200    233.36333   -200.68618    263624.46   -25814.972     1888.586   -27703.558   -375.95212    330.49822    78.605553    18.395935    27.407125 
   42400    236.17702   -257.62394    263624.46   -25770.694    1911.3568   -27682.051    -614.4103      331.029    78.606679    18.394684    27.417413 
   42600     239.4551   -336.41432    263624.46   -25758.621     1937.886   -27696.507   -1019.3177    332.26839     78.60719    18.392306    27.413321 
   42800    239.02969   -146.72822    263624.46   -25722.069    1934.4432   -27656.513   -127.47705     334.2047    78.609552    18.391059    27.415396 
   43000    236.62775   -186.91995    263624.46   -25741.867    1915.0046   -27656.872   -275.35165     339.0798    78.609246    18.389808    27.409297 
   43200    238.92577   -292.33697    263624.46   -25707.808    1933.6022    -27641.41   -779.20223    341.24848    78.609528    18.389678    27.384711 
   43400    240.12876   -327.42267    263624.46   -25715.705    1943.3378   -27659.043   -959.98669    342.98393     78.61032    18.392366    27.364532 
   43600    239.97698   -340.43037    263624.46    -25716.67    1942.1095   -27658.779   -1012.8542    341.57576    78.610393    18.393615    27.361232 
   43800    242.91726   -350.01734    263624.46   -25762.213    1965.9049   -27728.118   -1057.8985    341.57453    78.611061    18.393171    27.381093 
   44000    240.40582   -348.25866    263624.46   -25811.174    1945.5801   -27756.754    -1040.068     339.6206    78.610204    18.392667    27.384721 
   44200    240.55896   -333.19961    263624.46    -25737.59    1946.8194   -27684.409   -1026.9371    340.06348    78.610162    18.392059    27.404717 
   44400    237.54112   -324.80915    263624.46   -25736.122    1922.3963   -27658.518   -934.95736        341.5    78.609497    18.389595    27.389285 
   44600    237.07954   -272.08904    263624.46   -25770.632    1918.6609   -27689.293   -675.77925    342.31227     78.60937    18.389088    27.404031 
   44800    235.10475   -261.89957    263624.46   -25728.712     1902.679   -27631.391   -646.67367    343.05456    78.609442    18.390064    27.402303 
   45000    243.17577    -191.7565    263624.46   -25689.558     1967.997   -27657.555   -324.24644    343.44141    78.608974    18.390319    27.410755 
   45200    245.20961   -186.69219    263624.46   -25669.571    1984.4567   -27654.028   -333.67032    344.91129    78.608956    18.389435    27.407798 
   45400    237.16682   -356.74932    263624.46   -25709.854    1919.3672   -27629.221   -1101.8565     346.8385    78.609181    18.390139    27.426787 
   45600    240.47492   -394.37034    263624.46   -25669.793    1946.1393   -27615.933   -1266.4382    349.07632    78.609249    18.387169    27.432846 
   45800    244.88369   -315.45228    263624.46   -25677.728     1981.819   -27659.548   -875.29366    349.96508    78.609642    18.387783     27.41609 
   46000    243.30916   -153.45883    263624.46   -25683.944    1969.0765    -27653.02   -144.27977    350.33557    78.610847    18.388976    27.428499 
   46200    243.41493   -174.35355    263624.46    -25633.79    1969.9325   -27603.722   -277.27579    350.61793    78.609747    18.389675    27.431606 
   46400    232.06784   -222.72133    263624.46   -25700.637    1878.1016   -27578.738   -464.32186    353.18055    78.608095    18.389194    27.426489 
   46600    240.93834   -237.69168    263624.46   -25679.575    1949.8897   -27629.465   -567.68995    355.09849    78.607889    18.391319    27.434249 
   46800    239.08252   -373.46654    263624.46   -25624.142    1934.8707   -27559.013   -1142.9858    357.92381     78.60684    18.391096    27.449738 
   47000    244.14975   -249.27716    263624.46   -25712.044    1975.8793   -27687.923   -612.07945    361.31483    78.608902    18.389788    27.458586 
   47200    236.57836   -227.81549    263624.46   -25735.027    1914.6048   -27649.631   -545.83269    364.53144    78.610392    18.390862    27.472749 
   47400    239.88762   -272.63342    263624.46   -25698.816    1941.3864   -27640.202    -719.0204    364.71243    78.610095    18.391951    27.453944 
   47600    244.78973   -291.96221    263624.46   -25752.327    1981.0587   -27733.386   -767.11822    366.59973    78.609357    18.392235    27.450329 
   47800    237.10526   -248.98053    263624.46   -25781.729     1918.869   -27700.598   -611.75276    366.82973    78.609033    18.391997    27.472793 
   48000    237.16489   -303.54962    263624.46   -25761.403    1919.3516   -27680.755   -832.07516    369.56211    78.608839    18.391907    27.475267 
   48200    235.84908   -185.66601    263624.46   -25783.163    1908.7029   -27691.866   -323.74882    370.94916    78.611281    18.393111     27.46316 
   48400     236.6585   -298.39042    263624.46   -25725.734    1915.2534   -27640.988   -788.23198    371.71882    78.613101    18.394534    27.454529 
   48600    234.82792   -265.48635    263624.46   -25785.147    1900.4387   -27685.586   -664.57692    374.63946    78.613722    18.394438    27.462601 
   48800    236.13923   -237.68382    263624.46   -25746.567     1911.051   -27657.618   -557.76436    377.18604    78.615011    18.392721    27.458927 
   49000    237.07538   -242.68909    263624.46   -25761.222    1918.6272   -27679.849   -568.61689    378.51338    78.615705    18.393617    27.455483 
   49200    241.29552   -230.22166    263624.46   -25719.866    1952.7803   -27672.646   -524.05845    379.13377    78.615611    18.392095    27.427242 
   49400    241.12772   -233.98579    263624.46    -25805.96    1951.4224   -27757.383   -574.60562    379.56532    78.616392    18.394772    27.400853 
   49600    240.97559   -214.90783    263624.46   -25769.906    1950.1912   -27720.098   -413.30753    380.04204    78.617742    18.395441    27.400831 
   49800    234.34909   -301.72901    263624.46   -25774.407    1896.5636    -27670.97   -841.52876    382.41293    78.619764    18.396085    27.397816 
   50000    240.70507   -72.958411    263624.46   -25784.149    1948.0019   -27732.151    186.94182    382.93919    78.620226    18.396492     27.37692 
   50200    244.94354   -463.36309    263624.46   -25738.852    1982.3034   -27721.156   -1565.5378    385.41665    78.618323    18.395213     27.39278 
   50400    240.44207   -294.21462    263624.46   -25756.319    1945.8735   -27702.192   -857.27464    384.63057    78.618558    18.395136    27.394128 
   50600      243.228   -257.24287    263624.46   -25633.581    1968.4197   -27602.001   -692.69399    384.91812    78.616145     18.39285    27.372011 
   50800    240.91053   -220.84213    263624.46   -25774.957    1949.6646   -27724.622   -453.74953    386.26808    78.616718    18.392407    27.373878 
   51000    237.80339   -338.84747    263624.46   -25741.627    1924.5189   -27666.146   -1027.8093    386.87597     78.61581    18.391079    27.366626 
   51200     233.1443   -269.34379    263624.46   -25775.153    1886.8133   -27661.967   -715.33995    387.89356    78.615653    18.392007    27.372488 
   51400    235.00535   -237.09243    263624.46   -25760.278    1901.8746   -27662.152   -583.68914     390.3305    78.614922    18.393845    27.363477 
   51600    234.79134   -226.95019    263624.46   -25740.066    1900.1427   -27640.209   -500.82913    391.17311    78.614406    18.394508     27.35941 
   51800    241.62816   -214.40395    263624.46   -25684.216    1955.4723   -27639.688   -470.71193    391.19525    78.614488    18.397323    27.351689 
   52000    240.60807   -114.83294    263624.46   -25721.415    1947.2169   -27668.632   -33.912863    391.01497    78.617447    18.397949    27.340695 
   52200    233.52257   -325.92801    263624.46   -25788.434    1889.8746   -27678.309   -969.33314    392.45015    78.616777    18.399828    27.341851 
   52400    230.69211    -324.8848    263624.46   -25879.272     1866.968    -27746.24   -924.48288    393.68436     78.61499     18.40057    27.348016 
   52600    244.54581   -270.20713    263624.46   -25753.159    1979.0846   -27732.244   -698.40326    396.05872    78.616209    18.402815    27.349517 
   52800    245.77088   -182.06703    263624.46   -25700.538     1988.999   -27689.537   -317.37097    396.45671    78.616414    18.403558    27.364239 
   53000    240.66111   -252.53637    263624.46    -25690.61    1947.6461   -27638.256   -619.31794    397.67723    78.618007    18.406295    27.368565 
   53200    234.80717   -249.69417    263624.46    -25767.38    1900.2708   -27667.651   -611.67971    399.40727    78.617696     18.40587    27.349217 
   53400    235.66196   -392.79685    263624.46   -25705.304    1907.1885   -27612.493   -1288.2518    399.31046    78.617801    18.404722     27.33038 
   53600    235.00802   -313.27689    263624.46   -25734.344    1901.8962   -27636.241   -900.33333    400.38568    78.619281    18.404869    27.323126 
   53800    235.68552   -213.85406    263624.46   -25672.614    1907.3792   -27579.994   -467.93241    403.63792    78.619306    18.404153      27.3308 
   54000    237.86275   -341.51357    263624.46   -25681.366    1924.9993   -27606.365   -1047.6037    404.66178    78.618355     18.40504    27.338557 
   54200    240.12931   -222.00239    263624.46   -25589.585    1943.3423   -27532.928   -539.40997    404.47808     78.61806     18.40476    27.342139 
   54400    238.46132   -368.33673    263624.46   -25637.177    1929.8435   -27567.021   -1111.3537    407.58903    78.617844    18.404222    27.356843 
   54600     250.5074   -234.74109    263624.46   -25672.882    2027.3312   -27700.213   -495.70515    407.25857    78.616993    18.402727    27.365338 
   54800    240.43313   -269.72208    263624.46   -25686.417    1945.8011   -27632.219   -682.10173    411.39547    78.615994    18.402425    27.364137 
   55000    241.12564    -87.90596    263624.46   -25646.625    1951.4055   -27598.031    111.34239    411.82645    78.616299    18.402214    27.353748 
   55200     233.5252   -471.31665    263624.46   -25791.974    1889.8959    -27681.87   -1606.3476    412.85587    78.616686    18.403622    27.355339 
   55400    239.77004   -220.39242    263624.46   -25764.943    1940.4348   -27705.378   -485.87049    412.05412    78.617541    18.404155    27.345485 
   55600    241.50106   -133.95939    263624.46   -25733.717    1954.4437   -27688.161   -126.91276    412.34834    78.618628    18.403307    27.336679 
   55800     238.9905    -428.0566    263624.46   -25693.902    1934.1261   -27628.028   -1390.4291    411.59948    78.617279    18.401929     27.33861 
   56000    236.73945   -445.76979    263624.46   -25694.434    1915.9085   -27610.343   -1515.8178    414.05246    78.618121    18.403635    27.345679 
   56200    244.12134   -33.045172    263624.46   -25714.852    1975.6494   -27690.502    374.45403    417.46638    78.619135    18.402984    27.347651 
   56400    239.56025   -218.54056    263624.46   -25830.016     1938.737   -27768.753   -424.65784       418.73    78.619195    18.404258    27.341607 
   56600    238.48089   -203.95862    263624.46   -25874.866    1930.0019   -27804.868   -385.53771    422.97552    78.619005    18.405855    27.340825 
   56800    237.25624   -55.613524    263624.46   -25772.334    1920.0908   -27692.425    301.99866    423.63478    78.618621    18.409164    27.345875 
   57000    238.42156    -292.6667    263624.46   -25842.571    1929.5217   -27772.092   -795.20079    424.74116    78.617717    18.410898    27.342108 
   57200    241.97054   -263.76133    263624.46   -25718.988    1958.2432   -27677.232   -672.43238    427.72587    78.618227    18.409133    27.362982 
   57400    235.27759   -173.70221    263624.46   -25731.372    1904.0779    -27635.45   -286.62263    428.69043    78.618182    18.408552     27.37332 
   57600    234.84773   -307.81983    263624.46   -25763.448     1900.599   -27664.047   -885.59621    429.39948    78.617249    18.408351    27.377846 
   57800    240.47064   -256.52562    263624.46   -25688.654    1946.1047   -27634.759   -647.35399     431.2226    78.616829    18.407751    27.388298 
   58000    243.33468   -366.49694    263624.46   -25693.349    1969.2831   -27662.632   -1151.8221     432.2424    78.617755    18.408044    27.385485 
   58200    237.87151   -435.91038    263624.46   -25677.301    1925.0702   -27602.371   -1479.2491    433.53879    78.618746    18.410309    27.397665 
   58400    241.41879   -225.10154    263624.46   -25705.555    1953.7779   -27659.332   -508.50311    434.50638    78.616937    18.408938    27.403884 
   58600    235.67264   -415.73334    263624.46    -25741.15    1907.2749   -27648.425   -1371.2257    436.40074    78.617202    18.410622    27.423335 
   58800    240.63989   -219.60914    263624.46   -25776.846    1947.4744    -27724.32   -478.78996    438.71683     78.61638    18.411084    27.418357 
   59000    240.44604    -389.2636    263624.46   -25652.952    1945.9055   -27598.858   -1258.0731    439.77203    78.616069    18.410839    27.421222 
   59200    243.53641   -171.84877    263624.46   -25694.856    1970.9156   -27665.772   -247.23406    440.22774    78.615878    18.412043     27.44048 
   59400    243.67299   -251.97988    263624.46   -25716.844    1972.0209   -27688.865   -603.89151    440.79258    78.616425    18.413822    27.439242 
   59600    242.52399   -259.75035    263624.46   -25717.002    1962.7222   -27679.724   -656.24845    444.04065     78.61792    18.413008    27.439499 
   59800    231.76587   -416.92436    263624.46   -25823.999    1875.6578   -27699.657   -1336.8903    445.88594    78.617921    18.414621    27.435876 
   60000    238.06966    -257.9446    263624.46   -25739.151    1926.6738   -27665.825   -686.97014    445.53369    78.618804    18.413162    27.424841 
   60200    235.31705   -151.89583    263624.46   -25774.547    1904.3972   -27678.944   -209.12526     448.2941    78.617077    18.414278    27.431505 
   60400    243.90789   -170.28734    263624.46   -25667.476     1973.922   -27641.398   -254.12949    450.46761    78.615582    18.414609    27.417112 
   60600    235.24615   -358.34179    263624.46   -25727.192    1903.8234   -27631.016   -1094.1139    452.48011    78.614198    18.415225    27.417914 
   60800    242.09998   -240.78509    263624.46   -25580.659    1959.2907    -27539.95   -577.11776    453.40374    78.614397     18.41367    27.410427 
   61000    240.25818   -343.32352    263624.46   -25681.189    1944.3853   -27625.574   -1061.0401    453.98115    78.613181    18.413181    27.418566 
   61200    236.01973   -240.01291    263624.46   -25689.288    1910.0839   -27599.372   -591.81211    453.74276    78.612869    18.413533    27.430063 
   61400    237.27937   -293.39071    263624.46   -25698.677     1920.278   -27618.955   -818.59707    453.39386    78.612773    18.414404    27.440032 
   61600    233.83418   -178.20727    263624.46   -25731.356    1892.3965   -27623.752   -328.43683    454.27387    78.611677    18.414308    27.434772 
   61800    237.67284   -262.72062    263624.46   -25738.937    1923.4624   -27662.399   -697.64305    457.99266    78.611774    18.415285    27.419644 
   62000    239.52392   -367.39094    263624.46   -25680.794     1938.443   -27619.237   -1157.0358    459.64594    78.612495    18.415497    27.402809 
   62200     240.3442   -282.42723    263624.46   -25696.663    1945.0814   -27641.744   -773.03097    460.93741    78.610863    18.416925    27.401578 
   62400    242.16488    -338.0264    263624.46   -25719.463     1959.816   -27679.279   -1009.3634    461.87435    78.610834     18.41827    27.410184 
   62600    235.90006    -293.3697    263624.46   -25708.078    1909.1154   -27617.194    -848.3681     463.3474    78.610439    18.418974     27.39908 
   62800    242.47024   -298.12519    263624.46   -25746.016    1962.2873   -27708.303    -864.5141    464.70074    78.610165    18.417847    27.401711 
   63000    239.33728   -286.99908    263624.46   -25776.618    1936.9325   -27713.551   -796.52441    465.60316    78.611923    18.416492     27.41521 
   63200    242.76168   -200.32249    263624.46   -25678.505    1964.6458   -27643.151   -398.58594    468.11433    78.612271    18.417354    27.400511 
   63400    234.01089   -166.80162    263624.46   -25787.471    1893.8266   -27681.298   -251.22812    472.02001    78.614208    18.417938    27.400235 
   63600    234.44082   -261.87403    263624.46   -25814.608     1897.306   -27711.914   -676.11226    474.56988    78.615528    18.418684    27.405672 
   63800    234.93284   -296.94056    263624.46    -25911.41    1901.2878   -27812.698    -810.5687    475.91836    78.614323    18.418108    27.392402 
   64000    239.00834    -307.7354    263624.46   -25783.819    1934.2704   -27718.089   -875.75628     476.3491     78.61321    18.416287    27.389265 
   64200    244.48005   -112.42125    263624.46   -25757.239    1978.5524   -27735.791    12.108035    478.61974    78.611549    18.415622     27.37864 
   64400    234.63231   -333.42178    263624.46   -25768.592    1898.8556   -27667.447   -997.66353    481.93718    78.610086    18.413651    27.385091 
   64600    238.03669   -265.19655    263624.46   -25782.132    1926.4069   -27708.539   -682.90807    482.04236    78.610323    18.413669    27.393844 
   64800    236.83504   -303.73333    263624.46   -25726.153    1916.6821   -27642.835    -850.3864     483.6376    78.610843     18.41705    27.399646 
   65000    244.08898   -269.53877    263624.46   -25647.526    1975.3875   -27622.913   -691.70602    485.37277    78.611112    18.419192    27.393001 
   65200    241.29981   -258.63887    263624.46   -25775.264     1952.815   -27728.079   -666.87524    486.91476    78.611984    18.420855    27.387051 
   65400    241.26216   -314.63462    263624.46   -25740.576    1952.5104   -27693.087   -910.36444    485.15535    78.612555    18.423113    27.382295 
   65600    236.96773   -380.37002    263624.46   -25692.352     1917.756   -27610.108   -1183.0147    487.38921    78.610347    18.423425    27.379295 
   65800    242.39792   -108.79629    263624.46   -25717.185    1961.7019   -27678.887    5.1518464    489.28381    78.610647    18.423677    27.376879 
   66000    240.89357   -284.23781    263624.46    -25712.04    1949.5274   -27661.568   -769.72995    491.08542    78.610667    18.424175    27.364309 
   66200     237.3839   -346.18556    263624.46   -25741.327     1921.124   -27662.451   -1056.3844    492.62203    78.610489    18.423869    27.345381 
   66400    236.87428   -263.81116    263624.46   -25726.635    1916.9997   -27643.635   -667.41017    494.26225    78.610342    18.421406    27.350078 
   66600    239.16284   -284.00571    263624.46   -25773.187    1935.5208   -27708.708   -760.03292     496.7511    78.611058    18.421543    27.353839 
   66800    237.49465    -244.0555    263624.46    -25839.23    1922.0203   -27761.251   -595.55038    498.18212    78.610275     18.42274    27.337981 
   67000    231.52381   -284.65656    263624.46   -25889.651    1873.6988    -27763.35   -770.01814    500.31001    78.609857    18.421651    27.307988 
   67200    235.41205   -138.77231    263624.46   -25801.479     1905.166   -27706.645   -100.64961    500.27862    78.609957     18.42151    27.307116 
   67400    241.70997   -345.52648    263624.46   -25747.581    1956.1345   -27703.715   -1048.1093    502.13993    78.608453    18.420301    27.322444 
   67600    245.27096   -221.64864    263624.46   -25660.622    1984.9532   -27645.575   -468.31219    502.47762    78.610169     18.42087     27.31998 
   67800    237.68384   -173.63015    263624.46   -25790.484    1923.5514   -27714.035   -282.08315    499.93392    78.610953    18.421091    27.321521 
   68000    239.00483   -260.59269    263624.46   -25811.783     1934.242   -27746.025   -635.41494    501.50599    78.611875    18.420902    27.333908 
   68200    241.01742   -430.63538    263624.46   -25813.859    1950.5297   -27764.389   -1455.4468    503.76792    78.610651    18.421997     27.32898 
   68400    243.52247   -253.62132    263624.46   -25687.513    1970.8028   -27658.316   -632.68348    504.08538    78.609482     18.42332    27.319198 
   68600    239.39241   -300.14388    263624.46   -25761.797    1937.3787   -27699.175   -861.03927    506.74307    78.608295    18.425221    27.304064 
   68800    238.50025   -128.61442    263624.46   -25733.939    1930.1585   -27664.098   -55.050243     507.4061    78.607796    18.425375    27.303154 
   69000    240.51065   -396.27875    263624.46    -25747.24    1946.4285   -27693.668   -1271.2904    510.22926    78.606412    18.424407     27.29093 
   69200    236.53117   -288.57806    263624.46   -25814.447    1914.2229    -27728.67   -787.05782    511.60392    78.607534    18.424238    27.286563 
   69400    233.37818   -217.69012    263624.46   -25864.867    1888.7061   -27753.574   -458.11736    513.85307    78.607658    18.421742    27.287593 
   69600    246.26636   -309.42316    263624.46   -25633.717    1993.0088   -27626.725     -835.693    514.73695    78.607302    18.420369    27.296696 
   69800    233.80781   -339.80479    263624.46   -25747.537    1892.1831    -27639.72   -1052.3607    516.89417    78.606367    18.417269    27.286772 
   70000    240.19206   -143.67976    263624.46   -25732.651    1943.8501   -27676.501   -131.37106    522.06791    78.605787    18.416632    27.306131 
   70200     243.6222   -274.68526    263624.46   -25697.139    1971.6099   -27668.749   -753.25746      526.558      78.6073    18.414744    27.298267 
   70400    243.99385   -217.13932    263624.46   -25661.503    1974.6176   -27636.121   -443.17373    528.56539    78.607666    18.415191     27.26871 
   70600    239.66525   -162.05951    263624.46   -25726.636    1939.5867   -27666.223    -263.0572    526.00352    78.608446    18.413994    27.249543 
   70800    234.96328   -258.72161    263624.46   -25688.709    1901.5341   -27590.243   -660.80228    526.90962    78.608112     18.41458    27.253994 
   71000    235.59808   -190.97353    263624.46    -25685.27    1906.6715   -27591.941   -381.77268    529.28494    78.606399    18.413734    27.269418 
   71200    235.36211   -288.75689    263624.46   -25670.414    1904.7619   -27575.176   -745.04653    530.97957    78.606839    18.413953    27.272829 
   71400    237.28064   -380.65196    263624.46   -25702.545    1920.2883   -27622.833   -1208.8342    532.18756    78.607402    18.414974    27.289456 
   71600    238.18656   -148.99359    263624.46   -25658.516    1927.6198   -27586.136    -172.3056    532.02694    78.606392    18.414753    27.272878 
   71800    230.86255   -145.85311    263624.46   -25764.894    1868.3474   -27633.241   -145.99861    531.45103    78.606031    18.415505    27.258162 
   72000    237.76694    -268.6162    263624.46   -25759.812    1924.2239   -27684.035   -665.82197    534.75804     78.60513    18.416073    27.263815 
   72200    245.26888   -320.94119    263624.46   -25582.448    1984.9363   -27567.384   -914.08071    534.36492    78.604789    18.413363    27.265254 
   72400    239.56525   -333.26251    263624.46   -25701.979    1938.7775   -27640.757   -981.29398    536.20995    78.604299    18.413921     27.27662 
   72600    242.14722    -183.8457    263624.46   -25625.746     1959.673   -27585.419   -320.35726    538.61449    78.603545    18.416345    27.296026 
   72800    244.43654   -161.49051    263624.46    -25669.22    1978.2003    -27647.42   -210.62585    541.08592    78.601637    18.415188    27.291632 
   73000    242.46547   -318.80937    263624.46   -25703.373    1962.2486   -27665.622   -892.25352    541.69387    78.601069     18.41554    27.292162 
   73200    240.14268   -284.50097    263624.46   -25633.483    1943.4505   -27576.934   -797.56614    544.26568    78.600533    18.419959    27.294923 
   73400     235.6168   -261.71203    263624.46   -25643.665     1906.823   -27550.488   -669.75502    547.03798    78.601303    18.418398    27.301026 
   73600    243.02008    -174.4923    263624.46   -25612.663     1966.737     -27579.4    -330.4975    549.14373    78.599925    18.417969    27.300718 
   73800    239.69658   -175.26777    263624.46   -25761.967    1939.8403   -27701.807   -280.73736    550.49171    78.598415    18.418891    27.300248 
   74000    239.88822    -246.9425    263624.46   -25768.401    1941.3912   -27709.792   -596.50895    551.98666    78.598767    18.416369    27.322194 
   74200    240.53646   -441.91093    263624.46   -25704.972    1946.6373   -27651.609   -1475.0158    554.91516    78.600526    18.413673    27.352001 
   74400    247.12966   -242.08397    263624.46   -25672.005    1999.9955   -27672.001   -587.10303    553.66487     78.60137    18.413265    27.334058 
   74600    240.80709   -411.15312    263624.46   -25748.152    1948.8275    -27696.98   -1318.4052    555.67731     78.60123    18.412262    27.334849 
   74800    234.45632   -197.37407    263624.46   -25710.074    1897.4314   -27607.506   -374.22806    554.26119    78.600042    18.412559    27.332627 
   75000    235.75766   -286.42868    263624.46   -25717.583     1907.963   -27625.546   -791.75031    554.33033    78.600295    18.413108    27.336244 
   75200    242.47094    -271.6645    263624.46   -25660.959    1962.2929   -27623.251   -662.16281    554.62056     78.59938    18.414595    27.350445 
   75400    238.71937   -172.16436    263624.46   -25742.709    1931.9318   -27674.641   -287.50935    557.90317     78.60044    18.413766    27.356435 
   75600    236.10475   -343.35351    263624.46   -25663.851    1910.7719   -27574.623   -1009.7898    559.33426    78.601563    18.414574    27.337619 
   75800    239.27416   -390.45742    263624.46   -25630.265    1936.4216   -27566.687   -1242.9593    558.42938    78.603808    18.414152    27.344922 
   76000    247.27733   -187.78397    263624.46   -25664.782    2001.1905   -27665.973   -354.84189    558.09815    78.604556    18.414486    27.358795 
   76200    233.54445   -212.33735    263624.46   -25773.953    1890.0517   -27664.005   -455.25929    559.63221    78.606583    18.417009    27.371107 
   76400    240.19418   -309.18513    263624.46   -25725.407    1943.8673   -27669.274   -869.44946    562.82196    78.606676    18.416855     27.37403 
   76600    236.24112   -460.95384    263624.46   -25657.952    1911.8756   -27569.827   -1563.7242     563.4315    78.607923    18.416738    27.382934 
   76800    236.33085   -325.97048    263624.46   -25740.402    1912.6018   -27653.004   -966.89219    563.88267     78.60886    18.419155    27.390322 
   77000    245.54838   -153.20787    263624.46   -25621.363    1987.1983   -27608.561   -154.90632    565.05432    78.611696    18.419006    27.374101 
   77200    239.87001   -324.94928    263624.46   -25653.345    1941.2438   -27594.589   -953.15175    565.21318    78.611706    18.416616    27.397665 
   77400      240.188   -336.18883    263624.46   -25686.343    1943.8173    -27630.16   -994.30955    565.80984    78.610332    18.418221    27.395003 
   77600    236.04922   -295.88093    263624.46   -25763.299    1910.3226   -27673.622   -810.19147    568.02847    78.609745    18.417921    27.399974 
   77800    235.15436   -439.78511    263624.46   -25713.141    1903.0805   -27616.222   -1474.1114    569.52744    78.608513    18.418129    27.404284 
   78000    238.18832   -193.07925    263624.46   -25711.081    1927.6341   -27638.715   -352.26831    570.13109    78.607373    18.418336    27.402907 
   78200    235.88791   -219.95899    263624.46   -25732.545    1909.0171   -27641.562    -475.6251    569.74652    78.608048    18.417952    27.385989 
   78400    240.62225   -322.36425    263624.46   -25695.385    1947.3316   -27642.716   -913.65452    568.72347    78.608129    18.417208    27.408117 
   78600    238.90565   -107.82162    263624.46   -25642.497    1933.4394   -27575.936   -1.3152886    565.95543    78.607257    18.418411    27.404866 
   78800     242.0391   -335.87742    263624.46   -25666.075     1958.798   -27624.873   -997.69679    567.80461    78.606668    18.417063    27.390035 
   79000    236.17835   -236.04727    263624.46   -25673.143    1911.3676   -27584.511   -558.86715    566.50541    78.605647    18.414961    27.404617 
   79200    241.22261   -304.83384    263624.46   -25626.883    1952.1903   -27579.073   -912.27531    569.16817    78.604372    18.411613    27.398937 
   79400    243.42269   -159.62156    263624.46   -25652.991    1969.9953   -27622.986   -172.82254    570.04375    78.603957    18.412191    27.399262 
   79600    232.85938   -273.07347    263624.46   -25758.705    1884.5075   -27643.213   -696.77449    569.51385    78.603287     18.41041    27.409994 
   79800     240.7104   -248.81087    263624.46   -25752.404     1948.045   -27700.449   -623.76854    570.05086    78.602553    18.409791    27.404475 
   80000    240.26715   -180.57843    263624.46   -25761.277    1944.4579   -27705.735    -318.2721    569.19253    78.602634    18.410591     27.42059 
   80200    241.39988   -251.38305    263624.46   -25795.354    1953.6249   -27748.979   -627.40207    568.98183    78.601598     18.41013    27.423823 
   80400    235.30192   -233.85566    263624.46   -25791.294    1904.2748   -27695.569    -517.5636     571.3777    78.601529    18.410583    27.443103 
   80600    236.00753   -318.51361    263624.46   -25731.113    1909.9852   -27641.098   -937.60585    572.43064     78.60197    18.411843    27.439573 
   80800    240.24892   -265.09439    263624.46   -25743.424    1944.3103   -27687.734     -693.062    572.80472    78.601614    18.412545    27.461559 
   81000    245.71989   -269.80156    263624.46   -25719.098    1988.5863   -27707.685   -707.91029    575.03138     78.60179    18.411578    27.463289 
   81200    234.29403   -194.08804    263624.46   -25755.763     1896.118   -27651.881   -362.22664    576.08137    78.601003    18.410732    27.473168 
   81400     238.4693   -424.15387    263624.46   -25734.167    1929.9081   -27664.075   -1405.3097    576.57485    78.600692    18.409203    27.460898 
   81600     238.3013   -313.54929    263624.46   -25794.259    1928.5484   -27722.807   -885.50945    578.18775    78.600439    18.410313    27.473456 
   81800    233.77787   -215.97406    263624.46   -25845.786    1891.9408   -27737.727   -465.20629    579.67506    78.599644    18.410319    27.469145 
   82000    238.10464   -228.44487    263624.46   -25756.379    1926.9568   -27683.336   -550.47397    582.15254     78.60003    18.412161    27.449869 
   82200    241.66901   -467.02739    263624.46   -25675.538     1955.803   -27631.341   -1606.6715    584.86393    78.601176    18.416107    27.460947 
   82400    243.11127    -179.7749    263624.46     -25721.8     1967.475   -27689.275   -260.99346    585.10163    78.602958    18.415947    27.459908 
   82600    243.14735   -275.78815    263624.46   -25628.436     1967.767   -27596.203   -742.70452    586.07389    78.604596    18.413269    27.455333 
   82800    235.31938    -235.7891    263624.46   -25744.571    1904.4161   -27648.987   -531.78652    587.43183     78.60311    18.411076    27.454707 
   83000    240.97541   -384.63131    263624.46   -25659.989    1950.1897   -27610.178   -1221.1005    588.34675    78.604046    18.411458    27.446979 
   83200    234.45773   -255.65003    263624.46    -25692.13    1897.4428   -27589.572   -662.35407    591.87082    78.603782    18.411354    27.420788 
   83400    239.31334   -230.84293    263624.46   -25702.059    1936.7388   -27638.798   -519.60611    593.04691    78.604705    18.411948    27.419233 
   83600    237.08793   -234.16014    263624.46   -25747.281    1918.7287    -27666.01   -557.13055    592.91252    78.605441    18.412551    27.430779 
   83800     239.5311   -194.83388    263624.46   -25728.194    1938.5011   -27666.695   -383.27501    593.05358    78.605644    18.410334    27.420924 
   84000    246.27918   -371.88132    263624.46    -25703.66    1993.1126   -27696.773   -1138.1764    595.10142    78.606558    18.408317    27.389866 
   84200    237.74397   -352.73939    263624.46   -25689.918     1924.038   -27613.956   -1068.5463    595.95566      78.6062    18.406708    27.385394 
   84400    236.98722    -159.1504    263624.46   -25716.863    1917.9137   -27634.777   -179.42663     598.3321    78.603444    18.408771    27.380994 
   84600    242.50744   -376.88096    263624.46    -25626.22    1962.5883   -27588.808   -1181.4486    599.73179    78.602318    18.409992    27.376856 
   84800    240.96179    -439.0045    263624.46   -25677.279    1950.0795   -27627.359   -1452.0413    601.70531    78.603682    18.409364    27.372795 
   85000    237.55155   -327.53131    263624.46   -25660.772    1922.4808   -27583.253   -978.56919    604.20733    78.602932    18.409524    27.380782 
   85200    243.29984   -304.74325    263624.46   -25682.376    1969.0011   -27651.377     -892.674    606.09697    78.603079    18.410793    27.374875 
   85400     239.9912   -33.030243    263624.46   -25730.129    1942.2246   -27672.354    337.56706      606.201    78.604148     18.41097    27.387734 
   85600    241.25756   -321.16706    263624.46   -25735.259    1952.4732   -27687.732   -946.30343     608.1727    78.605636    18.411594    27.390776 
   85800    240.50107   -247.32397    263624.46   -25733.631     1946.351   -27679.982   -628.59367    608.39766    78.604914    18.414119    27.411243 
   86000    240.03247   -254.19912    263624.46   -25760.768    1942.5586   -27703.326   -648.40379    609.18419    78.602753    18.417533    27.387764 
   86200    237.53366   -269.57622    263624.46     -25724.1     1922.336   -27646.436    -726.5723    609.90056    78.602536    18.416014    27.382533 
   86400    237.60391   -217.58167    263624.46   -25748.924    1922.9045   -27671.829    -478.6083     610.3977    78.601909    18.416597    27.380725 
   86600     238.7271   -140.92466    263624.46   -25688.542    1931.9943   -27620.536   -135.86174    610.35626      78.6026    18.416081     27.37858 
   86800    236.07652   -356.14017    263624.46   -25777.704    1910.5435   -27688.248   -1111.7744    609.35617    78.602439    18.415207    27.392214 
   87000    241.59932   -295.12566    263624.46   -25688.496     1955.239   -27643.735   -839.71627    607.42516    78.602154    18.414349    27.388389 
   87200    234.18108   -298.86553    263624.46   -25688.044    1895.2039   -27583.248   -815.56642    609.10556    78.601625    18.414036    27.378342 
   87400    238.87182   -288.54568    263624.46   -25762.488    1933.1656   -27695.654   -778.76156    612.02006    78.599684    18.413197    27.394992 
   87600    239.83819   -296.19131    263624.46   -25711.537    1940.9863   -27652.523   -801.17967    614.06381    78.599791    18.414923    27.391785 
   87800    235.62538   -260.08459    263624.46   -25732.935    1906.8924   -27639.828   -669.92248    616.56303    78.600628    18.414823    27.376618 
   88000    242.03537   -202.92066    263624.46   -25701.127    1958.7679   -27659.895   -401.63573    617.89883    78.601661    18.415488    27.375847 
   88200    234.45864   -255.11118    263624.46    -25750.89    1897.4502    -27648.34     -632.884    620.18994    78.603342    18.414999    27.374879 
   88400    246.84127   -130.18183    263624.46   -25707.648    1997.6615   -27705.309   -53.061224    620.16707     78.60572    18.414041    27.364726 
   88600     236.7284   -356.33627    263624.46   -25691.577    1915.8191   -27607.396   -1068.4588    621.74915    78.606477    18.413825    27.370875 
   88800    236.16728    -226.9061    263624.46   -25711.283     1911.278   -27622.561   -531.92548    618.31447    78.605581    18.412624    27.373252 
   89000    244.53468   -197.03243    263624.46   -25661.857    1978.9946   -27640.852   -370.42345    620.38697    78.603192    18.411933    27.369309 
   89200    241.33875   -158.71563    263624.46    -25684.97    1953.1302     -27638.1   -182.81979     617.5022    78.602893    18.408749    27.374795 
   89400    238.67541   -179.05746    263624.46   -25664.219     1931.576   -27595.795   -216.55455    620.36884    78.603047    18.411488    27.375597 
   89600    235.73678   -61.681538    263624.46   -25809.239     1907.794   -27717.033    242.45403    619.39069    78.603455     18.41401    27.371443 
   89800    238.16041   -290.84996    263624.46   -25686.748    1927.4082   -27614.156    -778.8215    621.75832    78.605024    18.414079    27.364002 
   90000    238.84239   -265.06281    263624.46   -25703.834    1932.9274   -27636.762   -683.22921    622.61811    78.604565    18.416157    27.364641 
   90200     235.7176   -311.01971    263624.46   -25707.459    1907.6388   -27615.098   -878.14586    623.87169    78.606213    18.416329    27.364518 
   90400    237.28186   -294.83964    263624.46   -25701.604    1920.2982   -27621.902   -833.54952    623.76809    78.607349      18.4161    27.364488 
   90600    239.98969   -112.03282    263624.46   -25703.279    1942.2124   -27645.491    5.9684269    621.78457    78.607971    18.415659    27.355817 
   90800    234.59288   -276.11959    263624.46   -25721.432    1898.5366   -27619.969   -735.84754    624.23938    78.608667    18.417734    27.356049 
   91000    234.33253   -162.61926    263624.46   -25710.955    1896.4296   -27607.385   -200.20908     626.7609    78.610811    18.417955     27.36614 
   91200    236.58284   -280.49401    263624.46   -25819.094    1914.6411   -27733.735   -721.43252    629.72356     78.61172    18.417597    27.395101 
   91400    233.98547   -352.29417    263624.46   -25740.862    1893.6208   -27634.483   -1112.1721    632.14866    78.612099     18.41731    27.411657 
   91600    238.14455   -251.54574    263624.46    -25603.68    1927.2799    -27530.96   -614.34124    634.12312    78.611623    18.416615    27.410721 
   91800    242.73993   -142.75799    263624.46   -25617.305    1964.4698   -27581.774   -115.87124    634.40573    78.610677    18.416026    27.430089 
   92000    239.42922   -300.73892    263624.46   -25642.896    1937.6766   -27580.572   -824.07573    637.41471    78.610462    18.417094    27.414828 
   92200    238.01768   -276.74073    263624.46   -25702.629    1926.2531   -27628.882   -741.80591    638.31296    78.609299    18.417758    27.421093 
   92400    242.29941   -355.99694    263624.46   -25686.563    1960.9047   -27647.468    -1086.618    637.15392    78.610674    18.418398    27.423931 
   92600    245.08507   -442.71875    263624.46   -25613.394    1983.4488   -27596.843   -1487.4762    638.58652    78.607491     18.41929    27.415533 
   92800    242.58207   -172.61246    263624.46   -25725.299    1963.1923   -27688.491   -288.65375    638.39154    78.606342    18.418671    27.425842 
   93000    238.21314   -330.08099    263624.46   -25746.119     1927.835   -27673.954   -949.23155    639.91156    78.605787     18.41994    27.424718 
   93200    239.78415   -314.25855    263624.46   -25715.495     1940.549   -27656.044   -898.63142    640.41876    78.604822    18.420373    27.432434 
   93400    236.51502   -217.09702    263624.46    -25815.86    1914.0922   -27729.952   -452.52669    640.33969    78.605382    18.420496    27.440752 
   93600    235.70617   -344.89993    263624.46   -25759.131    1907.5463   -27666.677   -1034.5421    642.43728    78.604824    18.422274    27.449549 
   93800    236.91378   -310.88104    263624.46   -25758.356    1917.3193   -27675.676   -852.46638     641.3308    78.603756     18.42433    27.438544 
   94000    237.92525   -282.86165    263624.46    -25741.25    1925.5051   -27666.755   -781.04373    641.61918     78.60539    18.425821    27.440272 
   94200    242.33881   -85.187665    263624.46   -25648.347    1961.2236    -27609.57    108.04662    644.22399    78.605888    18.425647    27.439088 
   94400     240.6005   -304.53454    263624.46   -25694.504    1947.1556   -27641.659   -872.38183    647.84918    78.607509    18.426237    27.456484 
   94600    241.13873   -270.09952    263624.46   -25702.149    1951.5115    -27653.66   -686.88597    649.99881    78.606791    18.425445     27.49736 
   94800     238.6441   -256.01542    263624.46   -25675.243    1931.3227   -27606.566   -676.10646     649.8659    78.606341    18.422816    27.491876 
   95000    236.45331   -141.03827    263624.46   -25679.599    1913.5928   -27593.192   -95.598184    652.86358    78.607869    18.422007    27.497089 
   95200    239.51353    -361.6815    263624.46   -25665.917    1938.3589   -27604.276    -1114.861    655.67308    78.607246    18.423282    27.483627 
   95400    238.89532   -284.19208    263624.46   -25673.209    1933.3558   -27606.564   -750.26238    657.78209    78.605804     18.42357    27.478108 
   95600    243.91076   -458.52266    263624.46   -25670.495    1973.9452    -27644.44   -1555.9048    656.84501    78.604416    18.425938    27.466369 
   95800    244.42241   -308.46442    263624.46   -25685.049     1978.086   -27663.135   -891.75815    654.38459    78.604747    18.427146    27.443958 
   96000    240.12123    -356.8134    263624.46   -25644.709    1943.2769   -27587.986   -1119.2603    654.66679    78.603886    18.428536     27.45527 
   96200    241.11575   -256.47955    263624.46   -25559.264    1951.3255   -27510.589   -672.46137    654.80265    78.603373    18.429377    27.463709 
   96400    243.32983   -330.96618    263624.46   -25646.709    1969.2438   -27615.953   -945.43357    655.02313    78.603794    18.431129    27.467497 
   96600    233.52327    -396.1105    263624.46   -25742.112    1889.8803   -27631.993   -1270.4244    658.93764    78.604115    18.431636     27.47874 
   96800    238.18116   -269.32331    263624.46   -25712.583    1927.5762   -27640.159   -696.55714    661.01997    78.603579     18.43368    27.478969 
   97000    232.57799   -404.59173    263624.46   -25727.065    1882.2303   -27609.295   -1304.5816    663.57023     78.60377    18.434143    27.463658 
   97200    239.32723   -253.98199    263624.46   -25706.343    1936.8512   -27643.194   -628.09935    665.20944    78.601863    18.432529    27.455663 
   97400    242.47408   -428.37506    263624.46   -25696.504    1962.3183   -27658.822   -1430.3304    667.64219    78.601304     18.43447    27.467828 
   97600    243.80311   -224.57068    263624.46   -25633.874     1973.074   -27606.947   -490.41054    666.97019    78.600429      18.4355    27.480569 
   97800    235.89105   -367.30942    263624.46   -25619.419    1909.0425   -27528.461   -1129.7927    668.40093    78.599974    18.438047    27.487993 
   98000    234.17237   -122.17135    263624.46   -25705.176    1895.1334    -27600.31   -5.5110792    668.44054    78.600316    18.435197    27.466999 
   98200     236.0923   -427.47885    263624.46   -25704.556    1910.6712   -27615.227   -1451.4815    670.40592    78.601318     18.43399    27.480566 
   98400    235.48571   -339.83891    263624.46     -25692.1    1905.7621   -27597.862   -994.37674    672.03561    78.603743    18.433724     27.45244 
   98600    239.35164   -296.20453    263624.46   -25682.791    1937.0487   -27619.839   -831.34949    673.46622    78.603059    18.435308    27.442644 
   98800    240.50923   -262.58715    263624.46   -25648.949     1946.417   -27595.366   -668.94815    674.72695    78.601651    18.435146    27.456959 
   99000    239.60168   -243.75419    263624.46   -25691.112    1939.0722   -27630.184   -588.63712    676.31201    78.601084    18.434763    27.463216 
   99200    241.16039    -304.2181    263624.46   -25646.786    1951.6868   -27598.473   -849.53704     677.7641    78.600045    18.432435    27.470379 
   99400    234.45205   -312.56062    263624.46   -25717.108    1897.3968   -27614.505   -904.35064    679.85886    78.597082    18.431219    27.469231 
   99600    247.15094   -178.10591    263624.46   -25682.842    2000.1677    -27683.01     -290.994    680.35761    78.596044    18.431042    27.467579 
   99800    243.66623    -274.3471    263624.46   -25718.162    1971.9662   -27690.128   -730.77843    681.05556    78.595873    18.432473    27.479864 
  100000    241.08713   -211.58527    263624.46   -25684.468    1951.0939   -27635.562   -431.21066    683.75033    78.593942     18.43148    27.493629 
  100200    234.27779   -174.92733    263624.46   -25741.032    1895.9865   -27637.018   -277.26529     685.2674    78.593452    18.433012     27.49258 
  100400    244.70861    21.082772    263624.46    -25684.42    1980.4022   -27664.823    586.69468    683.91324    78.593689    18.430519    27.498674 
  100600    237.17833   -286.87133    263624.46   -25705.026    1919.4603   -27624.486   -734.71974    688.30927    78.594151    18.430982    27.502141 
  100800    238.65174   -371.85536    263624.46   -25733.116    1931.3845   -27664.501   -1164.6007    688.04048    78.593491    18.430293    27.497554 
[...]
 5176000    219.54549   -611.64685    263624.46   -27994.883    1776.7595   -29771.642   -1614.9922      11309.3    81.697629     19.28358    27.474705 
 5176200    222.61936    -611.1014    263624.46   -27954.852    1801.6361   -29756.488   -1657.9242    11303.789    81.695248    19.282609    27.458132 
 5176400    225.90874   -530.26143    263624.46   -27965.487    1828.2567   -29793.744   -1286.8626    11304.643    81.693942    19.282395    27.459204 
 5176600    228.63991   -566.06324    263624.46   -27905.666    1850.3597   -29756.026   -1374.5055    11289.965    81.693235    19.282777    27.440713 
 5176800    223.80241   -675.03218    263624.46   -27933.617    1811.2103   -29744.828    -1880.792    11292.925    81.693233    19.284018    27.439023 
 5177000    230.17558   -604.31971    263624.46   -27941.396    1862.7878   -29804.183   -1612.2935    11287.848    81.692798    19.284036    27.446761 
 5177200    230.65639   -535.07384    263624.46   -27889.634    1866.6789   -29756.313    -1305.668    11294.531    81.693916    19.283189    27.450622 
 5177400    231.77542   -552.38109    263624.46   -27853.879    1875.7352   -29729.614   -1339.5541    11293.172    81.693362    19.282861    27.474705 
 5177600    232.09381   -649.89349    263624.46   -27839.785    1878.3119   -29718.097   -1814.8785    11293.595    81.693992    19.281377    27.465537 
 5177800    232.02589    -642.3983    263624.46   -27915.419    1877.7621   -29793.181   -1774.6636    11293.687     81.69338    19.279744     27.46562 
 5178000    226.81188    -525.8985    263624.46   -27961.293    1835.5657   -29796.858   -1250.9489    11305.742     81.69216      19.2798    27.443615 
 5178200    228.94014   -548.60831    263624.46   -27929.087    1852.7895   -29781.876   -1398.7898    11299.334    81.690881     19.28043    27.443582 
 5178400    227.92408   -476.30868    263624.46   -27907.232    1844.5666   -29751.798   -1009.1115    11296.005    81.690227    19.281153    27.444649 
 5178600    226.18539   -540.53116    263624.46   -27918.406    1830.4956   -29748.902   -1272.8959    11290.487    81.689049    19.281977    27.437559 
 5178800    228.53918   -582.37202    263624.46   -27876.179    1849.5445   -29725.723   -1503.3184    11287.206    81.687878    19.282697    27.422417 
 5179000    228.18435   -551.69848    263624.46   -27927.377    1846.6729    -29774.05   -1366.3362    11270.958    81.687623    19.283599    27.434276 
 5179200     225.4783   -631.62229    263624.46   -27959.968    1824.7731   -29784.741   -1698.3924    11259.904    81.688451    19.282456    27.436149 
 5179400     232.8956   -661.23732    263624.46    -27850.42    1884.8006    -29735.22   -1805.7602    11252.207    81.689993    19.282955    27.453952 
 5179600    225.12516   -511.44088    263624.46   -27936.901    1821.9152   -29758.816     -1185.62    11242.281    81.690892    19.282843    27.443706 
 5179800    224.59183   -587.28424    263624.46   -27960.996    1817.5991   -29778.595   -1559.7764    11232.669    81.691937    19.281682    27.452301 
 5180000    219.29291   -468.24899    263624.46   -28039.174    1774.7155    -29813.89   -1012.7583    11228.116    81.692357    19.281296    27.449084 
 5180200    225.73298   -521.69966    263624.46   -27983.413    1826.8343   -29810.248   -1265.9508    11226.438    81.692848     19.28188    27.445568 
 5180400    230.16342   -529.17993    263624.46   -27881.499    1862.6894   -29744.188   -1263.7195    11228.138    81.692367    19.282686     27.45452 
 5180600    226.20489    -494.3482    263624.46   -27908.825    1830.6534   -29739.479   -1107.6704    11224.565    81.691826    19.282392    27.461638 
 5180800    224.99975   -498.39506    263624.46   -27957.993    1820.9003   -29778.893    -1119.043    11216.393    81.691241    19.282174    27.460012 
 5181000    227.08859   -540.61312    263624.46   -27876.332    1837.8051   -29714.137   -1298.1441    11231.838    81.690383    19.282887    27.461971 
 5181200    222.95752   -476.77637    263624.46   -27953.016    1804.3727   -29757.389   -999.17342    11244.322     81.69217    19.282568    27.467669 
 5181400     227.7026   -558.59838    263624.46   -27901.291    1842.7742   -29744.065   -1372.2884     11254.66    81.693029    19.281868    27.454135 
 5181600    225.05038    -686.2622    263624.46   -27927.919    1821.3101    -29749.23   -1920.6469    11255.495    81.692907    19.282118      27.4676 
 5181800    227.73661   -477.73715    263624.46   -27882.141    1843.0495   -29725.191   -1017.7031    11250.776    81.692923    19.281856    27.465182 
 5182000    228.46252   -553.46229    263624.46   -27888.529    1848.9242   -29737.453   -1392.3514    11249.996    81.693532    19.280901    27.456903 
 5182200    228.64162   -473.99371    263624.46   -27870.912    1850.3736   -29721.286   -1026.9263    11241.563    81.694577    19.279794    27.457925 
 5182400    226.41787   -527.09805    263624.46   -27957.522     1832.377     -29789.9   -1210.5035    11236.319    81.694723    19.279605    27.451502 
 5182600    225.26031   -595.79401    263624.46   -27942.672     1823.009   -29765.681   -1510.4974    11223.122    81.695155     19.28016    27.443329 
 5182800    226.89963   -529.52598    263624.46    -27904.56    1836.2759   -29740.836   -1236.5719    11222.135    81.696113    19.280719    27.441105 
 5183000    227.16433   -554.36288    263624.46   -27860.165     1838.418   -29698.583   -1435.4339     11223.97    81.697392    19.279715    27.438639 
 5183200    225.99665   -504.57492    263624.46   -27918.647    1828.9682   -29747.615   -1144.3464    11220.303     81.69718    19.279474    27.451677 
 5183400    225.54198   -487.45426    263624.46   -28017.441    1825.2885   -29842.729   -1064.6858     11222.26    81.696157     19.27799    27.456358 
 5183600    222.50169   -602.51915    263624.46   -27990.382    1800.6838   -29791.066     -1640.26    11215.636    81.695678    19.277722     27.44976 
 5183800    223.55474    -484.2951    263624.46   -27956.412     1809.206   -29765.618   -1009.9128    11213.666     81.69443    19.276783    27.458351 
 5184000     229.2368   -489.44987    263624.46   -27929.233    1855.1903   -29784.423   -1050.5535    11211.582    81.694564    19.275677    27.465634 
 5184200    226.83165    -592.9926    263624.46   -27919.461    1835.7257   -29755.187    -1468.392    11207.746    81.694747    19.275123    27.448263 
 5184400     225.3391   -489.54135    263624.46   -27913.023    1823.6467   -29736.669   -1097.0552    11204.811    81.694662    19.274843    27.428161 
 5184600    227.78061   -541.78419    263624.46   -27923.533    1843.4055   -29766.938   -1313.3775    11207.418    81.694097    19.274398    27.435412 
 5184800     229.0598   -549.39407    263624.46    -27919.18    1853.7579   -29772.938   -1336.3311    11218.937     81.69476     19.27552    27.436693 
 5185000    225.67321   -608.26315    263624.46   -27895.708    1826.3505   -29722.059   -1563.7992    11224.481    81.695795    19.275869    27.443303 
 5185200    225.77924   -567.49885    263624.46   -27922.591    1827.2087     -29749.8   -1449.4676    11231.121    81.695471    19.275487    27.435794 
 5185400    221.69942   -523.64341    263624.46    -27896.88    1794.1911   -29691.071   -1285.7741    11234.904    81.696367    19.276457    27.434952 
 5185600    228.62684   -475.29651    263624.46   -27929.662     1850.254   -29779.917   -1030.6636    11244.725    81.697193    19.275845    27.436596 
 5185800    228.15356   -433.32234    263624.46   -27888.116    1846.4238    -29734.54   -854.17528    11242.586     81.69867    19.275565    27.439633 
 5186000    226.39568   -574.63493    263624.46   -27852.327    1832.1974   -29684.524   -1491.9897    11237.933    81.699655    19.275416    27.454293 
 5186200    228.44816   -549.13231    263624.46   -27882.871     1848.808   -29731.679   -1299.8099     11222.98    81.700804     19.27535    27.459401 
 5186400    228.99243   -485.41106    263624.46   -27895.979    1853.2126   -29749.192   -1041.8413    11225.784    81.701882    19.274512    27.453486 
 5186600     227.8159   -625.12836    263624.46   -27914.902    1843.6911   -29758.593   -1641.6232    11230.166    81.702851    19.273637    27.444512 
 5186800    226.97639   -640.23691    263624.46   -27817.621     1836.897   -29654.518    -1777.079    11233.778    81.703044    19.273867    27.444089 
 5187000     229.9839   -554.33868    263624.46   -27826.769    1861.2365   -29688.005   -1363.1282    11237.688    81.703789    19.273149     27.43259 
 5187200    225.88415   -553.73946    263624.46   -27974.297    1828.0577   -29802.354   -1298.2388    11239.408    81.704417    19.273942    27.434238 
 5187400    220.10409   -628.89116    263624.46   -27978.524    1781.2802   -29759.804   -1709.1361    11235.043    81.705158    19.273903    27.443659 
 5187600    225.61933   -577.19556    263624.46   -27883.266    1825.9145   -29709.181   -1485.7231    11234.259    81.705656    19.273631    27.450746 
 5187800    226.87522    -600.9948    263624.46   -27921.735    1836.0783   -29757.813   -1608.0377    11238.158    81.706959    19.273788     27.46157 
 5188000    227.77235   -610.33825    263624.46   -27836.834    1843.3387   -29680.172   -1567.0405    11244.242    81.705565    19.274799    27.470662 
 5188200     229.8975   -561.86919    263624.46    -27873.22    1860.5373   -29733.758   -1397.5585    11245.527    81.705705    19.273613    27.455466 
 5188400    227.40398    -600.0756    263624.46   -27913.767    1840.3575   -29754.124   -1574.7781    11261.028    81.706435    19.273591    27.465779 
 5188600    221.06115   -547.23242    263624.46   -27955.274    1789.0256   -29744.299   -1358.6996    11262.616    81.706333    19.271071     27.46565 
 5188800    224.34395   -536.18409    263624.46   -27937.743     1815.593   -29753.336   -1340.0563    11278.059    81.706549    19.269255    27.462252 
 5189000    227.93007   -527.60923    263624.46   -27892.291    1844.6151   -29736.906   -1242.3879    11282.285    81.706609    19.269143    27.473374 
 5189200    220.12546    -552.5531    263624.46    -27984.25    1781.4532   -29765.704   -1314.8487    11276.617    81.705925    19.268567    27.476747 
 5189400    224.20989   -483.61305    263624.46   -27914.299    1814.5081   -29728.807   -1064.1287    11278.673    81.704804    19.268572    27.484249 
 5189600    230.69589   -593.28322    263624.46   -27877.734    1866.9986   -29744.733   -1514.5183     11276.98    81.705349    19.267368    27.478784 
 5189800    225.18382   -663.80119    263624.46   -27937.649      1822.39   -29760.039   -1843.4065    11272.681    81.706061    19.268176    27.487479 
 5190000    228.59946   -522.91953    263624.46   -27930.165    1850.0324   -29780.198    -1190.609    11265.299    81.706578    19.266138    27.505966 
 5190200    219.83916   -577.41419    263624.46   -27960.158    1779.1362   -29739.294   -1483.9354    11259.774    81.708342    19.265425    27.503436 
 5190400    231.12309   -520.70364    263624.46    -27794.75    1870.4559   -29665.206   -1210.6726    11247.508    81.708726    19.263103    27.507483 
 5190600    228.25189   -584.77329    263624.46   -27910.812    1847.2196   -29758.031   -1513.4116    11245.723    81.709502    19.263013    27.497842 
 5190800    230.20128   -490.09725    263624.46   -27904.104    1862.9958     -29767.1    -1107.846    11237.807    81.710295    19.262768    27.481816 
 5191000     227.4694   -492.25957    263624.46   -27941.337    1840.8869   -29782.224   -1123.7087    11230.456    81.710835    19.262829    27.486625 
 5191200    231.29069   -552.04169    263624.46   -27920.786    1871.8122   -29792.599   -1416.8004    11224.636    81.711263    19.263149    27.486865 
 5191400    229.86061   -491.98715    263624.46   -27924.269    1860.2387   -29784.507   -1000.5324     11214.05    81.711414    19.262736    27.485486 
 5191600    226.93503   -604.74129    263624.46   -27939.805    1836.5624   -29776.367   -1507.3314    11210.431    81.712119    19.262446    27.469276 
 5191800    229.73644   -588.51779    263624.46   -27836.136    1859.2339    -29695.37   -1496.1998    11209.427    81.712406    19.262331    27.470875 
 5192000    230.53996   -555.44986    263624.46   -27837.657    1865.7366   -29703.393   -1382.6942    11223.093    81.713251    19.264075    27.485149 
 5192200    228.05174   -565.95815    263624.46   -27896.973    1845.5997   -29742.573   -1474.5742    11229.356    81.713473    19.263739    27.486958 
 5192400    226.12431   -524.31407    263624.46   -27878.144    1830.0013   -29708.145   -1232.0562    11230.335      81.7148    19.261468    27.471528 
 5192600    226.43131   -545.65945    263624.46   -27945.251    1832.4858   -29777.736   -1345.3894    11239.816    81.715455    19.261771    27.474672 
 5192800    229.76624   -553.95991    263624.46   -27890.113     1859.475   -29749.588    -1378.541     11245.69    81.716745    19.261855    27.472972 
 5193000    224.06406   -533.19098    263624.46   -27942.113    1813.3279   -29755.441   -1329.1169    11260.642       81.717    19.260369    27.481516 
 5193200    231.69648   -565.47012    263624.46   -27879.233    1875.0963   -29754.329   -1446.7179    11260.701    81.718735    19.260595    27.499091 
 5193400    224.04342   -580.71723    263624.46   -27926.492    1813.1609   -29739.653   -1445.2798    11258.329    81.720395    19.262083    27.505156 
 5193600     234.1494   -619.63411    263624.46   -27849.375    1894.9475   -29744.322   -1593.3202    11248.908    81.721964    19.261798    27.512071 
 5193800    220.31049   -569.60232    263624.46   -27945.316    1782.9506   -29728.266   -1419.0601    11245.481    81.723421    19.261375    27.511646 
 5194000    218.97879   -486.82351    263624.46   -28023.086    1772.1733    -29795.26   -1019.3017    11239.174    81.724453    19.262106     27.52842 
 5194200    225.74843   -567.93327    263624.46   -27959.742    1826.9593   -29786.701   -1442.4514    11230.388    81.726155    19.262152    27.530799 
 5194400    229.61593   -512.93683    263624.46   -27886.094    1858.2586   -29744.352   -1202.1937     11218.73    81.727155    19.261838     27.52313 
 5194600    230.10699   -511.50263    263624.46    -27867.86    1862.2327   -29730.092   -1244.1196    11217.376    81.727041    19.262006    27.535188 
 5194800    228.59429   -664.27691    263624.46   -27871.552    1849.9905   -29721.543   -1885.3036    11215.258    81.726633    19.261204    27.541845 
 5195000    228.75596   -620.19661    263624.46   -27895.324    1851.2989   -29746.623   -1639.8331    11214.305     81.72564    19.260885     27.55049 
 5195200    232.32807   -570.67912    263624.46   -27874.527    1880.2077   -29754.735   -1391.4218    11208.234    81.725381    19.260236    27.563206 
 5195400     227.1536   -497.77551    263624.46   -27856.622    1838.3312   -29694.953   -1141.3309    11215.897    81.724837    19.259548    27.562619 
 5195600    223.05788   -639.07347    263624.46   -27940.008    1805.1849   -29745.193   -1755.6362    11219.609     81.72356    19.259702    27.563441 
 5195800    233.30506   -622.39714    263624.46    -27806.07    1888.1143   -29694.185   -1709.3599    11224.069    81.723334    19.260897    27.553147 
 5196000    226.20127   -615.99058    263624.46   -27899.271    1830.6241   -29729.895   -1618.5486    11225.101    81.723128    19.261506    27.556162 
 5196200    228.25668   -600.74449    263624.46   -27896.558    1847.2583   -29743.816   -1571.2228    11213.892    81.722484    19.260589    27.552442 
 5196400    223.40343   -608.21769    263624.46   -27871.107    1807.9815   -29679.089    -1621.571    11219.162    81.721079    19.261175    27.543165 
 5196600    225.74598   -524.48685    263624.46   -27917.198    1826.9395   -29744.137   -1261.7447    11217.637    81.720844    19.261642    27.545531 
 5196800    226.02443   -493.54317    263624.46   -27896.606    1829.1929   -29725.799   -1055.8291    11221.604    81.720515    19.261833    27.542913 
 5197000    222.70028   -578.00551    263624.46   -27851.235    1802.2909   -29653.526   -1413.8355    11223.284     81.72214    19.260737    27.539659 
 5197200    223.84221   -594.70565    263624.46   -27917.558    1811.5325   -29729.091   -1555.6918    11222.889    81.722489    19.260388    27.526376 
 5197400    234.06477   -503.77431    263624.46   -27907.692    1894.2626   -29801.954   -1081.9225    11232.601    81.723106    19.261308    27.533319 
 5197600    225.93543   -527.19649    263624.46   -27950.795    1828.4727   -29779.268   -1273.6943     11244.12    81.723894    19.260118    27.521264 
 5197800    221.69798   -478.77569    263624.46   -28011.961    1794.1794   -29806.141   -1107.5594    11257.303    81.725671    19.258957    27.505875 
 5198000    224.50946   -535.90801    263624.46   -27901.058    1816.9324   -29717.991   -1344.1652    11259.836     81.72594    19.257002    27.516763 
 5198200    225.32298   -625.19915    263624.46   -27890.196    1823.5162   -29713.712   -1682.3663    11259.277     81.72592    19.255869    27.507213 
 5198400    225.33241   -538.70148    263624.46   -27969.215    1823.5925   -29792.807   -1255.0732    11263.244     81.72511     19.25429    27.492646 
 5198600    226.51376   -531.94423    263624.46   -28011.956     1833.153   -29845.109    -1204.573    11265.765     81.72522     19.25341    27.497191 
 5198800    226.10802   -527.26015    263624.46   -27944.155    1829.8695   -29774.024   -1238.0648    11268.079    81.725024    19.253075    27.499333 
 5199000     224.3977   -536.91622    263624.46   -27866.775    1816.0279   -29682.803   -1345.4453    11274.441    81.725766    19.252406    27.503991 
 5199200    227.31017   -500.44521    263624.46   -27921.033    1839.5983   -29760.631   -1114.7465    11283.333     81.72636    19.251198    27.514652 
 5199400     226.9509   -546.14166    263624.46   -27949.097    1836.6908   -29785.788   -1332.9391    11285.065    81.725018    19.250155    27.510727 
 5199600    225.22906   -520.03098    263624.46   -27911.041    1822.7561   -29733.797   -1230.9797    11288.078    81.724104    19.250641    27.512703 
 5199800    226.00374   -516.23339    263624.46   -27903.988    1829.0255   -29733.014    -1223.171    11302.294    81.722261    19.251268    27.524604 
 5200000    226.14194   -424.86316    263624.46   -27901.741     1830.144   -29731.885   -808.52735    11311.466    81.720726    19.252229    27.528693 
Loop time of 14730.8 on 100 procs for 5200000 steps with 9436 atoms

Performance: 304.994 ns/day, 0.079 hours/ns, 353.002 timesteps/s
98.2% CPU use with 100 MPI tasks x no OpenMP threads

MPI task timing breakdown:
Section |  min time  |  avg time  |  max time  |%varavg| %total
---------------------------------------------------------------
Pair    | 10.705     | 4627.2     | 12192      |6107.1 | 31.41
Neigh   | 1.7317     | 204.69     | 822.06     |2030.7 |  1.39
Comm    | 1033.3     | 4198.2     | 9232.3     |3752.1 | 28.50
Output  | 169.95     | 170.06     | 172.03     |   1.5 |  1.15
Modify  | 675.28     | 5447.9     | 11117      |5176.4 | 36.98
Other   |            | 82.73      |            |       |  0.56

Nlocal:        94.3600 ave         345 max           0 min
Histogram: 36 38 6 0 0 0 0 0 0 20
Nghost:        632.450 ave        1161 max          86 min
Histogram: 32 2 6 0 0 0 5 27 8 20
Neighs:         0.00000 ave           0 max           0 min
Histogram: 100 0 0 0 0 0 0 0 0 0
FullNghs:      9951.72 ave       43059 max           0 min
Histogram: 77 3 0 0 0 0 0 0 0 20

Total # of neighbors = 995172
Ave neighs/atom = 105.46545
Neighbor list builds = 573733
Dangerous builds = 0
write_data 		${DIR}/data.${NAME}_run
write_data 		run_3/data.${NAME}_run
write_data 		run_3/data.ibeam_cooling_3_run
System init for write_data ...
Total wall time: 4:06:01
