
### Dimensions ###


### IMPORT ATOMS ###
read_data ../Box_Setup/data.Ibeam_235K
  orthogonal box = (0 0 0) to (78.752 72.9753 40.0024)
  6 by 5 by 4 MPI processor grid
  reading atoms ...
  9010 atoms
  reading velocities ...
  9010 velocities
group water type 2
2386 atoms in group water
group graphite type 1
6624 atoms in group graphite


# Define potential
#
pair_style          sw
pair_coeff * * MLC_e.sw C mW

# Add velocity/set timestep
#

fix		1 graphite setforce 0.0 0.0 0.0
velocity 	graphite set 0.0 0.0 0.0
velocity            water create ${START_TEMP} ${SEED} rot yes dist gaussian
velocity            water create 235 ${SEED} rot yes dist gaussian
velocity            water create 235 4342 rot yes dist gaussian
timestep            5.0

# Define output
#
compute 1 water msd
compute 2 water temp


thermo	            100
thermo_style custom step c_2 press vol etotal ke pe c_1[4] density

# Neighbor lists
#
neigh_modify        delay 0 every 1 check yes


# Set fixes
#
fix                 2 water momentum 10 linear 1 1 1 rescale
fix                 3 all nve
fix                 4 water temp/csvr ${START_TEMP} ${START_TEMP} 500.0 928347
fix                 4 water temp/csvr 235 ${START_TEMP} 500.0 928347
fix                 4 water temp/csvr 235 235 500.0 928347

# Run 0.05 ns equilibration
#
dump                1 all custom 100 ${DIR}/eq.${NAME}.dump id type x y z vx vy vz
dump                1 all custom 100 run_18/eq.${NAME}.dump id type x y z vx vy vz
dump                1 all custom 100 run_18/eq.ibeam_cooling_18.dump id type x y z vx vy vz
run                 10000
Neighbor list info ...
  update every 1 steps, delay 0 steps, check yes
  max neighbors/atom: 2000, page size: 100000
  master list distance cutoff = 6.67472
  ghost atom cutoff = 6.67472
  binsize = 3.33736, bins = 24 22 12
  1 neighbor lists, perpetual/occasional/extra = 1 0 0
  (1) pair sw, perpetual
      attributes: full, newton on
      pair build: full/bin/atomonly
      stencil: full/bin/3d
      bin: standard
Per MPI rank memory allocation (min/avg/max) = 0.4724 | 3.952 | 4.75 Mbytes
Step c_2 Press Volume TotEng KinEng PotEng c_1[4] Density 
       0          235   -397.42353       229892   -22660.138    1670.6695   -24330.807            0   0.88510766 
     100    232.36187   -269.87794       229892   -22665.405    1651.9144   -24317.319   0.78785543   0.88510766 
     200    232.08179   -262.79523       229892   -22693.913    1649.9233   -24343.836    1.1524209   0.88510766 
     300    227.21881   -408.14071       229892   -22676.592    1615.3512   -24291.943    1.5531571   0.88510766 
     400    232.61279   -440.79658       229892   -22668.868    1653.6983   -24322.566    1.8936137   0.88510766 
     500    228.76513   -328.19794       229892   -22644.219    1626.3444   -24270.563    2.1512633   0.88510766 
     600    236.81403   -309.10419       229892   -22570.768    1683.5659   -24254.334    2.4590514   0.88510766 
     700    241.48904   -286.18197       229892   -22591.106    1716.8016   -24307.908    2.6871483   0.88510766 
     800    241.81578   -463.31372       229892   -22575.357    1719.1245   -24294.482    2.9341315   0.88510766 
     900    238.39866   -370.01327       229892   -22601.564    1694.8314   -24296.395    3.2079255   0.88510766 
    1000    239.50066   -376.36267       229892   -22635.015    1702.6657   -24337.681    3.5845815   0.88510766 
    1100    237.57572   -509.67725       229892   -22607.684    1688.9809   -24296.665    3.9571781   0.88510766 
    1200    238.61568   -288.10631       229892   -22630.056    1696.3742    -24326.43    4.4086951   0.88510766 
    1300    237.83128   -335.64274       229892   -22593.394    1690.7977   -24284.191    4.8287994   0.88510766 
    1400    237.50582   -455.02034       229892   -22634.325     1688.484   -24322.809    5.1638248   0.88510766 
    1500    236.74552   -380.08674       229892    -22654.63    1683.0788   -24337.709    5.6000515   0.88510766 
    1600     234.9598   -286.00971       229892   -22635.968    1670.3837   -24306.352    5.9287893   0.88510766 
    1700    233.19845   -393.83562       229892   -22643.932    1657.8619   -24301.794    6.2437731   0.88510766 
    1800    232.19162   -478.66776       229892   -22604.023    1650.7041   -24254.727    6.5877323   0.88510766 
    1900     238.8463   -282.94903       229892   -22568.521    1698.0137   -24266.534    6.8852136   0.88510766 
    2000    237.30361   -396.58935       229892   -22533.424    1687.0464   -24220.471    7.2265917   0.88510766 
    2100    229.75374   -305.35546       229892   -22623.155    1633.3726   -24256.528    7.5498134   0.88510766 
    2200    234.49417   -249.63641       229892   -22580.063    1667.0734   -24247.136    7.7844905   0.88510766 
    2300    239.26905   -293.95634       229892   -22545.709    1701.0191   -24246.728    8.1716518   0.88510766 
    2400    243.10092   -361.45737       229892   -22547.662    1728.2608   -24275.923    8.5840632   0.88510766 
    2500    230.48501    -345.9397       229892   -22585.109    1638.5714    -24223.68    9.1959313   0.88510766 
    2600    232.03147   -289.44294       229892   -22596.859    1649.5656   -24246.424    9.6863034   0.88510766 
    2700    238.76828   -311.48112       229892   -22592.445    1697.4591   -24289.904    10.175268   0.88510766 
    2800    233.04914   -410.40921       229892   -22537.487    1656.8004   -24194.287    10.418573   0.88510766 
    2900    236.33632    -342.4005       229892   -22546.547    1680.1697   -24226.717    10.722322   0.88510766 
    3000      246.324    -392.5118       229892   -22544.257    1751.1745   -24295.432    10.886366   0.88510766 
    3100    235.03984   -321.83546       229892   -22526.684    1670.9527   -24197.637    11.167713   0.88510766 
    3200    232.96214   -333.40927       229892   -22591.319    1656.1819   -24247.501    11.598397   0.88510766 
    3300    226.65596   -326.12539       229892   -22674.104    1611.3498   -24285.454    12.034813   0.88510766 
    3400    235.42767   -335.81731       229892   -22629.272    1673.7099   -24302.982    12.170299   0.88510766 
    3500    232.29323   -296.59943       229892   -22625.248    1651.4265   -24276.674    12.567038   0.88510766 
    3600    231.80184   -245.62565       229892   -22610.783     1647.933   -24258.716    12.728119   0.88510766 
    3700    239.32863   -305.28103       229892    -22585.46    1701.4427   -24286.903    12.896363   0.88510766 
    3800    235.35007   -278.38964       229892   -22573.042    1673.1582   -24246.201    13.065834   0.88510766 
    3900     235.0433   -438.37459       229892   -22571.016    1670.9774   -24241.994    13.164951   0.88510766 
    4000    238.89156   -323.56886       229892   -22612.676    1698.3355   -24311.011    13.491034   0.88510766 
    4100    234.83569    -300.0478       229892   -22615.592    1669.5014   -24285.093    14.001971   0.88510766 
    4200      238.343   -409.87063       229892   -22591.261    1694.4357   -24285.696    14.181594   0.88510766 
    4300    234.91998    -418.0641       229892   -22658.688    1670.1006   -24328.788    14.614726   0.88510766 
    4400    230.64289   -170.75316       229892   -22624.717    1639.6938   -24264.411    14.876246   0.88510766 
    4500    229.62046    -266.9975       229892   -22649.126    1632.4251   -24281.551    15.402825   0.88510766 
    4600    231.15449   -339.53284       229892   -22692.098    1643.3309   -24335.429    15.686204   0.88510766 
    4700    238.10949   -385.83043       229892   -22637.073    1692.7756   -24329.848    16.026191   0.88510766 
    4800    235.25935   -342.70413       229892   -22606.088    1672.5133   -24278.602    16.486243   0.88510766 
    4900    242.09826   -399.62953       229892    -22555.35    1721.1327   -24276.483    16.715062   0.88510766 
    5000    234.01319   -278.09441       229892   -22597.212    1663.6541   -24260.866    16.992986   0.88510766 
    5100    241.25517   -379.47284       229892   -22563.014    1715.1389   -24278.153    17.555237   0.88510766 
    5200    235.01982   -513.19655       229892   -22604.022    1670.8104   -24274.833    17.915708   0.88510766 
    5300    228.90088   -418.10759       229892   -22665.157    1627.3095   -24292.466     18.26265   0.88510766 
    5400    233.14619   -399.69078       229892   -22654.842    1657.4904   -24312.332    18.581128   0.88510766 
    5500    234.62921   -337.96788       229892   -22654.723    1668.0335   -24322.756    18.870581   0.88510766 
    5600    232.54846   -199.14065       229892   -22681.608    1653.2409   -24334.849    19.544768   0.88510766 
    5700    234.75278   -425.18836       229892   -22661.427     1668.912   -24330.339    20.006716   0.88510766 
    5800    235.94281   -259.30143       229892    -22650.39    1677.3722   -24327.762    20.640515   0.88510766 
    5900    235.31569   -431.40792       229892   -22680.088    1672.9139   -24353.001    21.156542   0.88510766 
    6000    223.58283   -451.36196       229892   -22678.747    1589.5022   -24268.249    21.696208   0.88510766 
    6100    232.59684   -284.57945       229892   -22681.142    1653.5849   -24334.727    22.050601   0.88510766 
    6200    229.95239   -334.46435       229892    -22680.14    1634.7849   -24314.925    21.937183   0.88510766 
    6300    241.46808   -233.58319       229892   -22604.193    1716.6526   -24320.846    22.057795   0.88510766 
    6400      235.812   -200.30183       229892   -22649.887    1676.4422    -24326.33    22.227512   0.88510766 
    6500      230.721   -419.28258       229892   -22670.142    1640.2491   -24310.391     22.57867   0.88510766 
    6600    233.23507   -354.66456       229892   -22650.118    1658.1222    -24308.24    22.541686   0.88510766 
    6700    233.09738   -313.07717       229892   -22682.454    1657.1434   -24339.597    22.570852   0.88510766 
    6800    234.48493   -437.90335       229892   -22665.249    1667.0078   -24332.257    22.835927   0.88510766 
    6900    238.13242   -363.80113       229892   -22626.141    1692.9386    -24319.08    22.991602   0.88510766 
    7000     238.4494    -354.0274       229892   -22633.075    1695.1921   -24328.268    23.400204   0.88510766 
    7100    231.09911   -288.30769       229892   -22628.858    1642.9372   -24271.796    23.771922   0.88510766 
    7200    227.61631   -306.84023       229892    -22681.04    1618.1771   -24299.217    23.850223   0.88510766 
    7300     229.1356   -396.92661       229892   -22708.744    1628.9781   -24337.722    23.968508   0.88510766 
    7400    234.45241   -299.88105       229892   -22672.215    1666.7766   -24338.992    24.447379   0.88510766 
    7500    237.79127   -317.57303       229892   -22649.793    1690.5133   -24340.306    24.721155   0.88510766 
    7600    241.88143   -457.88626       229892   -22602.598    1719.5912    -24322.19     24.63462   0.88510766 
    7700    234.54058   -272.58245       229892   -22615.298    1667.4034   -24282.702    24.870195   0.88510766 
    7800     225.7962   -294.61637       229892   -22671.243    1605.2375    -24276.48    25.298328   0.88510766 
    7900    229.07929   -328.45458       229892    -22638.74    1628.5778   -24267.318    25.681402   0.88510766 
    8000    232.91497   -171.88825       229892   -22565.742    1655.8466   -24221.589    26.044714   0.88510766 
    8100    240.50772   -602.94434       229892   -22543.715    1709.8252    -24253.54    26.590499   0.88510766 
    8200     238.4126   -348.08368       229892   -22568.891    1694.9304   -24263.822    26.923009   0.88510766 
    8300    238.71202   -370.75814       229892    -22528.36    1697.0591    -24225.42    27.275994   0.88510766 
    8400    237.86892   -278.18086       229892   -22524.718    1691.0653   -24215.783    27.510344   0.88510766 
    8500    234.01556   -420.95852       229892   -22555.268    1663.6709   -24218.938    27.695745   0.88510766 
    8600    239.30695   -151.92823       229892   -22568.116    1701.2886   -24269.405    28.051831   0.88510766 
    8700    235.55128   -303.79723       229892   -22583.067    1674.5887   -24257.656    28.629559   0.88510766 
    8800    233.22293   -297.45757       229892   -22572.561    1658.0359   -24230.597    29.190946   0.88510766 
    8900     234.6864   -295.04199       229892   -22604.276    1668.4401   -24272.716    29.332517   0.88510766 
    9000    234.16578   -314.75728       229892   -22577.828    1664.7389   -24242.566    29.921573   0.88510766 
    9100    235.70592   -229.85036       229892   -22604.804    1675.6881   -24280.492    30.073556   0.88510766 
    9200    239.41333   -191.63059       229892   -22567.834    1702.0449   -24269.879    30.490696   0.88510766 
    9300    233.76298    -582.5836       229892   -22643.719    1661.8753   -24305.594    30.991968   0.88510766 
    9400    231.66783   -401.73094       229892   -22604.714    1646.9804   -24251.694    31.329168   0.88510766 
    9500    235.81383   -267.94181       229892   -22643.914    1676.4552   -24320.369     31.48539   0.88510766 
    9600    234.41744   -419.42879       229892   -22647.238    1666.5279   -24313.766    31.840389   0.88510766 
    9700    232.99826   -539.08638       229892   -22618.124    1656.4386   -24274.562    31.982157   0.88510766 
    9800    233.83014    -378.3697       229892   -22569.284    1662.3527   -24231.637    31.918904   0.88510766 
    9900    240.26196   -316.96767       229892   -22598.308     1708.078   -24306.386     32.00378   0.88510766 
   10000    232.28515     -383.822       229892   -22595.121     1651.369    -24246.49     32.14981   0.88510766 
Loop time of 18.5521 on 120 procs for 10000 steps with 9010 atoms

Performance: 232.858 ns/day, 0.103 hours/ns, 539.022 timesteps/s
98.0% CPU use with 120 MPI tasks x no OpenMP threads

MPI task timing breakdown:
Section |  min time  |  avg time  |  max time  |%varavg| %total
---------------------------------------------------------------
Pair    | 0.00049424 | 4.3522     | 16.07      | 243.7 | 23.46
Neigh   | 0.0004096  | 0.14183    | 0.5307     |  46.5 |  0.76
Comm    | 0.021363   | 7.5217     | 17.113     | 214.1 | 40.54
Output  | 0.16514    | 0.16935    | 0.17604    |   0.2 |  0.91
Modify  | 0.38286    | 6.238      | 18.24      | 287.4 | 33.62
Other   |            | 0.129      |            |       |  0.70

Nlocal:    75.0833 ave 232 max 0 min
Histogram: 56 4 23 7 0 0 0 0 4 26
Nghost:    604.575 ave 1009 max 0 min
Histogram: 10 7 3 0 10 20 29 11 20 10
Neighs:    0 ave 0 max 0 min
Histogram: 120 0 0 0 0 0 0 0 0 0
FullNghs:  7461.67 ave 28989 max 0 min
Histogram: 70 20 0 0 0 0 0 2 15 13

Total # of neighbors = 895400
Ave neighs/atom = 99.3785
Neighbor list builds = 578
Dangerous builds = 0
write_data 	    ${DIR}/data.${NAME}_eq
write_data 	    run_18/data.${NAME}_eq
write_data 	    run_18/data.ibeam_cooling_18_eq

undump              1
unfix               4



################################################
#######         Run Simulation         #########
################################################

reset_timestep      0
timestep	    10.0
log                 ${DIR}/log.run_${NAME}
log                 run_18/log.run_${NAME}
log                 run_18/log.run_ibeam_cooling_18
