
# Set production fixes - Nose/Hoover
#
fix                 4 water temp/csvr ${START_TEMP} ${END_TEMP} 500.0 928347
fix                 4 water temp/csvr 235 ${END_TEMP} 500.0 928347
fix                 4 water temp/csvr 235 225 500.0 928347


## divide "droplet" into core and surface
#region		core_reg cylinder z 135 135 44.6 20 INF units box
#region		surface_reg cylinder z 135 135 44.6 20 INF units box side out
#group		core dynamic all region core_reg
#group		surface dynamic all region surface_reg

## compute pressure core
#compute        peratom_core core stress/atom NULL
#compute        p_core core reduce sum c_peratom_core[1] c_peratom_core[2] c_peratom_core[3]
#variable       press_core equal -(c_p_core[1]+c_p_core[2]+c_p_core[3])/(3*1249982.5)


## compute pressure surface
#compute        peratom_surf surface stress/atom NULL
#compute        p_surf surface reduce sum c_peratom_surf[1] c_peratom_surf[2] #c_peratom_surf[3]
#variable       press_surf equal -(c_p_surf[1]+c_p_surf[2]+c_p_surf[3])/(3*42395)

## compute total pressure of drop
compute        peratom water stress/atom NULL
compute        p water reduce sum c_peratom[1] c_peratom[2] c_peratom[3]
variable       press equal -(c_p[1]+c_p[2]+c_p[3])/(3*58187)


# compute order parameter
compute        3 all orientorder/atom nnn NULL cutoff 3.5

# compute center of mass of bridge
compute 	4 water com

# Run simulation
thermo_style        custom step c_2 press vol etotal ke pe v_press c_1[4] c_4[*]
thermo              200
dump		     1 water custom 400 ${DIR}/prod.${NAME}.dump id type x y z vx vy vz c_3[*] c_peratom[*]
dump		     1 water custom 400 run_18/prod.${NAME}.dump id type x y z vx vy vz c_3[*] c_peratom[*]
dump		     1 water custom 400 run_18/prod.ibeam_cooling_18.dump id type x y z vx vy vz c_3[*] c_peratom[*]
run                 ${STEPS}
run                 4000000
Neighbor list info ...
  update every 1 steps, delay 0 steps, check yes
  max neighbors/atom: 2000, page size: 100000
  master list distance cutoff = 6.67472
  ghost atom cutoff = 6.67472
  binsize = 3.33736, bins = 24 22 12
  2 neighbor lists, perpetual/occasional/extra = 1 1 0
  (1) pair sw, perpetual
      attributes: full, newton on
      pair build: full/bin/atomonly
      stencil: full/bin/3d
      bin: standard
  (2) compute orientorder/atom, occasional, copy from (1)
      attributes: full, newton on
      pair build: copy
      stencil: none
      bin: none
Per MPI rank memory allocation (min/avg/max) = 0.866 | 6.23 | 7.207 Mbytes
Step c_2 Press Volume TotEng KinEng PotEng v_press c_1[4] c_4[1] c_4[2] c_4[3] 
       0    232.28515     -383.822       229892   -22595.121     1651.369    -24246.49   -984.80583     32.14981    39.435976    35.568221    26.653364 
     200    230.82041   -339.51722       229892   -22566.184    1640.9559    -24207.14   -777.60639    33.997254    39.435221    35.571236    26.672422 
     400    233.19717   -344.11808       229892   -22557.525    1657.8528   -24215.378   -784.22194    34.154468    39.432866    35.572677    26.652765 
     600    239.11704   -348.69003       229892   -22432.557    1699.9385   -24132.496   -823.84897    34.837241     39.43308    35.573068    26.649592 
     800    238.26049    -547.9386       229892   -22487.412    1693.8491   -24181.261   -1625.1325     35.41578     39.43188    35.574862    26.654661 
    1000    231.61287   -394.33429       229892   -22546.671    1646.5896   -24193.261   -1002.0602     36.91513    39.431583    35.577189    26.664008 
    1200    237.50947   -311.13822       229892   -22492.034    1688.5099   -24180.544   -695.37012    37.716026    39.431729    35.577874    26.650643 
    1400    235.30268   -95.078915       229892   -22521.165    1672.8213   -24193.986    204.87436    38.767738    39.430985    35.576346    26.639309 
    1600    232.78271   -456.59618       229892   -22544.234    1654.9063    -24199.14    -1209.255    40.335422     39.43148    35.576911    26.629951 
    1800    232.39307   -301.76476       229892   -22521.682    1652.1362   -24173.818   -644.67881    42.921094     39.43029    35.579535    26.624437 
    2000    242.11461   -451.42921       229892   -22479.643     1721.249   -24200.891    -1243.141    44.480839    39.431957    35.580891    26.638788 
    2200    228.47297   -300.78695       229892   -22546.376    1624.2673   -24170.643   -625.24257    44.947757     39.43083    35.581469    26.630165 
    2400    237.70882   -226.23166       229892   -22511.724    1689.9272   -24201.651   -342.86917    45.859746    39.430632    35.581954    26.605288 
    2600    237.37542   -336.17366       229892   -22555.212    1687.5569   -24242.769   -779.16658    46.395021    39.429024    35.580517    26.593544 
    2800    242.23994   -373.16315       229892    -22488.95    1722.1399    -24211.09   -912.50551    47.768367    39.427505     35.58063     26.61369 
    3000    236.85559   -187.77774       229892   -22506.755    1683.8613   -24190.616   -204.92005    49.664822    39.428712    35.580482    26.611808 
    3200    231.10688   -407.18641       229892   -22566.468    1642.9924   -24209.461   -1010.2565     50.97367    39.427979    35.580262     26.63646 
    3400    238.23758   -496.73504       229892   -22570.047    1693.6862   -24263.733   -1398.1421    52.285268    39.428892    35.579471    26.664258 
    3600    232.86191   -423.60722       229892   -22575.214    1655.4693   -24230.684    -1094.523    53.560973    39.430056    35.580016    26.658966 
    3800    237.35725   -442.15163       229892   -22541.197    1687.4278   -24228.625   -1223.2333    54.365426    39.429889    35.577671    26.655874 
    4000    234.05903   -342.15303       229892   -22608.615      1663.98   -24272.595   -779.24907    55.318173    39.427464    35.578058    26.664028 
    4200    235.88487   -397.80948       229892   -22534.298    1676.9603   -24211.258   -1023.7153    57.099744     39.42732    35.580059     26.67929 
    4400    232.04275   -459.27294       229892   -22557.947    1649.6457   -24207.592   -1261.5377    58.516518    39.425454    35.579477    26.685713 
    4600    232.97614   -263.78079       229892   -22650.143    1656.2814   -24306.424   -485.58623    58.920715     39.42428    35.576865    26.688486 
    4800    237.62784   -384.51088       229892   -22542.631    1689.3514   -24231.983   -929.58306     60.36083    39.422266    35.576857    26.690958 
    5000    229.40899   -344.09305       229892   -22594.447    1630.9217   -24225.369    -834.8508    61.089302    39.420983    35.575375    26.689752 
    5200    232.64318    -398.2455       229892   -22587.786    1653.9144   -24241.701   -1027.0157    63.036195    39.421477    35.576543    26.672575 
    5400    231.02383   -320.72062       229892   -22601.892     1642.402   -24244.294   -725.65923    64.899153    39.422947     35.57627    26.654537 
    5600    235.61203   -409.16176       229892   -22594.176    1675.0206   -24269.197   -1040.8963    66.274231    39.423092    35.577015    26.644235 
    5800    239.30285   -265.96238       229892   -22522.904    1701.2595   -24224.164   -514.43159    66.474123    39.423102    35.577348    26.657228 
    6000    231.62869   -333.05643       229892   -22531.972    1646.7021   -24178.674   -783.79878    67.452129    39.423507    35.577101    26.667892 
    6200    233.14776   -150.00972       229892   -22573.411    1657.5015   -24230.913   -77.660233    68.539447    39.421867    35.576057     26.66299 
    6400    231.12554   -450.50167       229892   -22548.028    1643.1251   -24191.153   -1231.7675    69.612916    39.422315    35.576213    26.654853 
    6600    233.87871   -425.23056       229892   -22534.175     1662.698   -24196.873   -1140.5173    71.178379     39.42298    35.576166    26.648464 
    6800    232.42784   -342.22555       229892   -22563.542    1652.3834   -24215.925     -801.908     72.78346    39.424167    35.576649    26.652166 
    7000    236.53385   -367.95942       229892   -22523.262     1681.574   -24204.836   -924.22767     74.40216    39.425312    35.575256    26.657327 
    7200    227.49367   -335.67493       229892   -22656.648    1617.3053   -24273.953   -804.68985    75.516959    39.422124    35.574552    26.658049 
    7400    232.09925   -371.12553       229892   -22608.554    1650.0474   -24258.601   -936.85774    75.050898     39.42193    35.575116    26.656479 
    7600    233.96406   -367.35985       229892   -22551.712    1663.3048   -24215.017   -933.51455    76.632581    39.422178    35.575452    26.662758 
    7800     229.7567   -327.51762       229892   -22652.545    1633.3937   -24285.938   -728.78349    78.244456    39.420237     35.57688     26.66986 
    8000    240.62521   -302.28556       229892   -22503.983    1710.6604   -24214.643   -666.71871     80.46826    39.418255    35.578489    26.669636 
    8200    238.61168   -328.51361       229892   -22514.104    1696.3458    -24210.45   -749.60985    81.288491    39.419503    35.581251    26.672035 
    8400    233.44538   -460.54958       229892   -22443.861    1659.6174   -24103.478   -1286.8732    83.390197    39.418345    35.581469    26.658078 
    8600    234.08982   -450.30207       229892   -22461.959    1664.1989   -24126.158   -1246.5882    85.674984    39.419436    35.581152    26.672472 
    8800    232.34177   -239.41857       229892   -22479.747    1651.7715   -24131.518   -418.97083    88.501552    39.419099    35.581062    26.687751 
    9000    239.03179   -300.23698       229892   -22450.802    1699.3324   -24150.135   -640.03981    90.324585    39.418942    35.578964    26.702828 
    9200    237.38483   -348.92576       229892   -22440.947    1687.6238    -24128.57   -839.53889    91.167975    39.418944    35.581361    26.699059 
    9400    239.21654   -401.30867       229892   -22527.552    1700.6459   -24228.198   -1053.8945    92.678395    39.418539    35.578531    26.724011 
    9600    234.54766   -298.08894       229892   -22579.638    1667.4537   -24247.092   -627.67486    93.182179    39.421688    35.576781    26.745215 
    9800    232.46015   -262.38799       229892   -22476.704    1652.6132   -24129.317   -481.53288    94.290454    39.421838    35.576709    26.767423 
   10000    235.11322   -343.80478       229892   -22549.113    1671.4744   -24220.587    -806.0785    95.884326    39.421264    35.574801    26.783583 
   10200    239.45565   -322.75036       229892   -22456.583    1702.3457   -24158.928   -729.72609    96.533856    39.419789    35.572988    26.787469 
   10400    241.94979   -226.15901       229892   -22470.522    1720.0772     -24190.6   -305.81234     97.33985    39.419034    35.574106    26.782364 
   10600    231.03824   -393.33327       229892   -22545.106    1642.5044   -24187.611   -982.14949    97.660439    39.418241     35.57805      26.7793 
   10800    235.33193   -336.89136       229892   -22588.403    1673.0293   -24261.432   -770.78642    96.484886    39.416801    35.580795    26.782425 
   11000    232.52023   -371.47553       229892   -22623.626    1653.0402   -24276.666   -895.16566    98.442953    39.417594    35.581644    26.789488 
   11200    228.14157   -253.66863       229892   -22613.338    1621.9113    -24235.25   -410.08909    99.942397    39.419463    35.581222    26.807856 
   11400    231.47693   -308.89857       229892   -22594.092    1645.6232   -24239.715   -650.23078     100.4074    39.419027    35.581166    26.805935 
   11600    235.55924   -260.45036       229892   -22491.366    1674.6453   -24166.011   -454.40997    101.37325    39.416728    35.582829    26.789925 
   11800    231.45709   -335.96935       229892   -22505.095    1645.4822   -24150.577   -789.56566    103.35794    39.418238    35.583677    26.789262 
   12000    235.98134   -404.36877       229892    -22458.65    1677.6461   -24136.296   -1050.9363    104.58316    39.419052     35.58388    26.788981 
   12200    241.25275    -318.3598       229892   -22503.251    1715.1217   -24218.373   -706.36786    105.09576    39.419578    35.585272    26.789178 
   12400     231.7062   -449.55433       229892   -22529.892    1647.2531   -24177.145   -1237.9099    105.67434    39.420725    35.586015    26.788038 
   12600    235.43553   -408.33802       229892   -22489.157    1673.7658   -24162.923   -1056.3527    106.67039    39.421586    35.584415    26.793107 
   12800    237.66606   -242.18134       229892   -22548.665    1689.6232   -24238.288   -401.00211    106.82093    39.422717    35.584345     26.80218 
   13000    237.27685    -235.6168       229892   -22602.132    1686.8562   -24288.988   -383.01319     109.6987    39.425029    35.582641    26.791873 
   13200    230.14374   -471.66077       229892   -22650.954    1636.1453   -24287.099   -1302.7751    110.83008    39.425729    35.581816    26.798938 
   13400    231.47414    -394.9222       229892   -22696.876    1645.6034   -24342.479   -997.49781    111.11187    39.427341    35.581785    26.787772 
   13600     236.2008   -293.30403       229892   -22657.758    1679.2063   -24336.964   -584.73338    111.94988     39.42885     35.58061    26.782104 
   13800    232.82372   -354.03075       229892   -22583.689    1655.1978   -24238.887   -828.64128    114.27282    39.429071    35.581148    26.781442 
   14000    237.22469   -265.20034       229892   -22535.433    1686.4854   -24221.919   -465.15979    115.33994    39.428776    35.581812     26.79284 
   14200    233.64317   -365.94538       229892   -22602.223    1661.0235   -24263.246   -926.68341      115.092    39.428089    35.582677    26.798296 
   14400    228.07098   -362.03194       229892   -22640.409    1621.4095   -24261.818   -857.07864     115.4415    39.427805    35.582308    26.793724 
   14600    233.27937   -291.54081       229892   -22601.948    1658.4372   -24260.385   -585.71005    116.46153    39.428557    35.579947     26.80977 
   14800     240.4598   -406.03177       229892   -22543.697    1709.4845   -24253.181   -1010.1445    115.80643    39.429055    35.576882    26.807603 
   15000    233.38113    -402.4628       229892   -22579.459    1659.1606   -24238.619   -1034.8189    116.73772    39.427852    35.575202    26.800871 
   15200    233.53664   -303.97952       229892   -22549.776    1660.2662   -24210.042   -589.08106    117.26891    39.428301     35.57468    26.801698 
   15400     231.8044     -367.448       229892   -22593.632    1647.9512   -24241.583   -882.20594    118.35434    39.429034    35.573634    26.795731 
   15600    235.68618   -268.36672       229892   -22511.589    1675.5477   -24187.137   -475.34146    119.10405     39.42907    35.574508    26.777228 
   15800    234.44327   -355.21352       229892   -22499.396    1666.7116   -24166.108   -812.84232    120.09888    39.428077    35.573896    26.775325 
   16000    238.75686    -401.6811       229892   -22548.348    1697.3779   -24245.726   -1009.8639     121.9118    39.428135    35.572478    26.753238 
   16200    229.51035    -473.0716       229892   -22507.584    1631.6423   -24139.226   -1296.4061    122.78411    39.430164    35.575022    26.758749 
   16400    233.20436   -214.43236       229892   -22557.072    1657.9039   -24214.976   -259.90717    124.11721    39.431821    35.572579    26.741493 
   16600    239.23803   -391.02242       229892   -22509.301    1700.7986   -24210.099   -995.67273    124.58942     39.43134    35.574541    26.763159 
   16800    236.80577   -184.01857       229892    -22554.19    1683.5071   -24237.698   -180.83425    125.27362     39.43162    35.573196    26.759628 
   17000    235.90437   -307.29009       229892   -22609.809    1677.0989   -24286.908   -670.70286    126.09655    39.433251    35.571523     26.77692 
   17200    234.30716   -361.93089       229892   -22582.758    1665.7439   -24248.502   -866.54769    128.37928    39.432304    35.570868    26.801577 
   17400    229.80519   -360.06173       229892   -22657.005    1633.7384   -24290.744   -906.21858    129.52484    39.433465    35.571402    26.806471 
   17600    236.95564   -306.07808       229892   -22581.288    1684.5726   -24265.861   -627.06841    131.24749     39.43402    35.573865    26.813939 
   17800    236.91928   -417.57714       229892   -22618.077    1684.3141   -24302.391   -1089.0334    132.22661     39.43309    35.572846    26.807047 
   18000    237.69252   -473.69651       229892   -22565.489    1689.8113   -24255.301   -1300.7059    132.56192    39.433101    35.570424    26.831716 
   18200    231.49328   -224.75823       229892   -22580.768    1645.7394   -24226.508   -340.12391     133.5593    39.434735    35.568078    26.846895 
   18400    234.24127   -316.61119       229892   -22513.112    1665.2755   -24178.387   -701.10949    134.67317     39.43496    35.565727    26.829561 
   18600      240.489   -383.93212       229892   -22528.763    1709.6921   -24238.455   -944.62912     137.1786    39.433896    35.563217      26.8263 
   18800    233.68824    -364.2007       229892   -22580.598    1661.3439   -24241.942   -845.40381    139.16749    39.433676    35.563596    26.835271 
   19000     238.6454   -218.33072       229892   -22543.777    1696.5855   -24240.363   -328.34954    139.48834    39.432715     35.56464    26.831537 
   19200    234.60163   -321.11328       229892   -22548.296    1667.8374   -24216.133   -680.68083    139.83389    39.430007    35.563295    26.817793 
   19400    236.74438    -334.5102       229892    -22483.93    1683.0707       -24167   -752.80925    142.15933    39.429204    35.560135    26.832654 
   19600    233.44877   -298.37971       229892   -22495.374    1659.6415   -24155.015   -616.95486    142.64664    39.431075    35.560339    26.835743 
   19800    235.24921   -272.55259       229892   -22519.107    1672.4412   -24191.548   -548.83637    142.77622    39.432202    35.560502    26.847652 
   20000    238.05474   -365.37374       229892   -22514.334    1692.3864   -24206.721   -888.35648     142.7913    39.432278    35.562907    26.843826 
   20200    235.05153   -538.42671       229892   -22601.853    1671.0359   -24272.889    -1568.343    143.84883    39.432819    35.561423    26.845883 
   20400     240.9661   -270.42251       229892   -22497.208    1713.0839   -24210.292    -466.3472    144.17839    39.435552    35.564967    26.850121 
   20600    230.64288   -212.22939       229892   -22608.189    1639.6937   -24247.883   -279.68352    145.15609    39.434307    35.564872    26.846344 
   20800    240.79483   -252.69619       229892   -22529.301    1711.8663   -24241.167   -471.77233    145.71864    39.433454    35.562456    26.835679 
   21000    238.27779   -374.76041       229892   -22515.474    1693.9721   -24209.446   -949.24843    146.28909    39.432171    35.561805    26.858394 
   21200    234.72259   -334.11528       229892   -22522.403    1668.6973     -24191.1    -789.0115    147.12836    39.433796    35.562402    26.862099 
   21400    236.13869   -370.84042       229892   -22492.602    1678.7647   -24171.366   -922.51889    149.19703    39.434807    35.562508    26.846178 
   21600    247.96313   -414.70045       229892   -22407.856    1762.8274   -24170.683    -1074.234    150.71849    39.435347    35.562872    26.873666 
   21800    228.90914   -319.58272       229892   -22546.908    1627.3682   -24174.276   -728.39747    152.38288    39.436656     35.56247    26.875524 
   22000    231.64863   -481.03115       229892   -22628.369    1646.8438   -24275.213    -1371.889     152.8589     39.43932    35.560777     26.89772 
   22200    229.69377   -320.31205       229892   -22661.314    1632.9463    -24294.26   -689.57038    155.02593    39.439824    35.558356     26.88164 
   22400    237.69925   -300.78375       229892   -22524.936    1689.8591   -24214.795   -616.57784    155.25464    39.441655    35.556435    26.885734 
   22600    239.16986    -442.5533       229892   -22577.876     1700.314    -24278.19    -1179.025    156.94218    39.442981    35.556446     26.89372 
   22800    237.62843   -426.36575       229892   -22550.575    1689.3556   -24239.931   -1162.7766    157.08367    39.443087    35.556303    26.901945 
   23000    229.70342    -479.8541       229892   -22600.692    1633.0149   -24233.707   -1313.1668    158.70244    39.440854    35.555098    26.920632 
   23200    237.18843   -396.58663       229892   -22530.527    1686.2276   -24216.755   -994.21954    160.38055    39.438681    35.554238    26.922999 
   23400     240.8993   -346.09164       229892    -22568.41     1712.609   -24281.019   -785.62768    161.96748    39.440645    35.554177    26.920378 
   23600    233.34713   -420.01021       229892   -22495.753    1658.9189   -24154.672    -1104.473    163.26783    39.439601    35.556579    26.915184 
   23800    234.54296   -485.15185       229892   -22522.766    1667.4203   -24190.186   -1343.5552    164.36453    39.440357    35.558269    26.896358 
   24000    241.52651   -271.43547       229892   -22548.879     1717.068   -24265.947   -526.56839    164.78112    39.441344    35.558741    26.882863 
   24200    235.51064   -431.59663       229892   -22603.391    1674.2998   -24277.691   -1165.8212    166.03466    39.440211    35.558898    26.875583 
   24400    234.47592   -256.45339       229892   -22668.845    1666.9437   -24335.788   -492.78546    167.23981     39.43565    35.559791    26.863166 
   24600    230.98064   -412.31105       229892   -22697.159     1642.095   -24339.254   -1112.7378    166.75567    39.433815     35.55902     26.87671 
   24800    234.49637   -456.78841       229892   -22612.848    1667.0891   -24279.937   -1233.6133    169.40877    39.434959    35.558437    26.875703 
   25000      240.597   -376.79625       229892   -22664.926    1710.4599   -24375.386    -961.5099    170.31266    39.436591     35.55599    26.881721 
   25200     228.4163   -267.43829       229892   -22739.014    1623.8645   -24362.879   -547.80387    170.92327    39.437572    35.554845    26.883611 
   25400    234.83201   -391.86543       229892   -22597.607    1669.4752   -24267.082    -958.2555    171.00473    39.437339    35.554482    26.877123 
   25600     239.3652   -217.11697       229892   -22464.622    1701.7027   -24166.324   -288.19949    171.53571    39.436627    35.555929    26.871784 
   25800    237.07117    -504.0412       229892   -22491.262    1685.3939   -24176.656   -1461.0659    172.57958    39.436721    35.556699    26.880912 
   26000    235.47016   -260.74942       229892   -22532.459     1674.012   -24206.471   -500.44259     173.2834    39.436595     35.55774    26.898266 
   26200    229.52548   -478.17475       229892   -22513.504    1631.7499   -24145.254   -1324.7122     174.8535    39.434901    35.556728      26.9081 
   26400    235.66031    -257.9488       229892   -22538.501    1675.3638   -24213.864    -478.4124    175.65635      39.4349    35.554634    26.897322 
   26600     239.0692   -484.43787       229892   -22484.468    1699.5984   -24184.066   -1392.2859    176.76587    39.433424    35.554115    26.891428 
   26800    236.01805   -324.99043       229892   -22522.411    1677.9071   -24200.318   -731.87642    179.02973    39.434828    35.554944     26.88333 
   27000    238.45449   -219.08887       229892   -22466.829    1695.2283   -24162.058   -306.18417    179.73214    39.437213     35.55637    26.885232 
   27200    232.90635   -416.52265       229892   -22518.124    1655.7853    -24173.91   -1096.1027    181.27367    39.436436    35.558783    26.871267 
   27400    238.09703   -269.77262       229892    -22462.05     1692.687   -24154.737   -551.54494    181.93006    39.434274    35.557928    26.897138 
   27600    232.60153   -383.73157       229892   -22580.615    1653.6183   -24234.233   -969.76319    184.23516    39.432539    35.559374    26.925355 
   27800    236.12191   -356.44098       229892   -22456.459    1678.6454   -24135.105   -847.21697    185.87541    39.429721    35.560134    26.942085 
   28000    227.29833   -531.74462       229892    -22559.65    1615.9165   -24175.566   -1545.2567    187.61041     39.42927    35.558636    26.929219 
   28200    234.54126   -286.08765       229892   -22536.427    1667.4082   -24203.835   -590.27212    188.18084    39.429856    35.559935    26.925314 
   28400    232.10325   -241.08808       229892   -22541.429    1650.0759   -24191.505    -424.4992     188.2785    39.429834    35.560099     26.91616 
   28600    233.63847   -384.94778       229892   -22557.954    1660.9901   -24218.944   -981.02238    189.90334    39.431014    35.562861    26.907415 
   28800    232.91881   -310.81884       229892   -22560.055    1655.8739   -24215.928   -679.51768    190.05122    39.431402     35.56301    26.893516 
   29000    235.99248    -462.2528       229892   -22557.081    1677.7253   -24234.806   -1233.0911    192.38751     39.43345    35.563269    26.881832 
   29200    237.65163   -116.43415       229892   -22536.652    1689.5206   -24226.173    67.321654    192.16681    39.434319    35.565592    26.887623 
   29400    232.45861   -369.48596       229892   -22495.672    1652.6022   -24148.274   -935.64571    193.70749    39.436454    35.565835    26.861728 
   29600    235.45479   -367.90624       229892   -22488.506    1673.9027   -24162.409   -943.19655    195.74296    39.437923    35.566278    26.866599 
   29800    232.65052    -314.6347       229892   -22593.796    1653.9665   -24247.762   -682.81482    196.91879    39.439029     35.56998    26.849441 
   30000    234.95992    -405.7431       229892   -22650.139    1670.3846   -24320.523   -1077.4495    198.29455     39.43802    35.571844    26.835174 
   30200    232.49971   -310.06381       229892   -22567.281    1652.8944   -24220.176   -669.31553     197.9084    39.436912     35.57259    26.842105 
   30400    230.27114   -356.85627       229892    -22605.45    1637.0509   -24242.501   -877.96465    199.60092    39.437974    35.573191    26.834239 
   30600    229.79039   -309.44068       229892   -22675.226    1633.6332   -24308.859    -631.5457    199.15721    39.436537    35.572976    26.826656 
   30800    230.88024   -312.31393       229892    -22609.66    1641.3812   -24251.041   -690.17246    199.46883    39.437946    35.572727    26.814608 
   31000    230.95979   -362.24146       229892   -22566.137    1641.9467   -24208.084   -871.05244    201.18265     39.44018    35.572382    26.813149 
   31200    234.43119    -408.0168       229892   -22531.518    1666.6257   -24198.143   -1038.1134    201.85915    39.440275    35.571516     26.81085 
   31400    239.38995   -442.10706       229892   -22525.744    1701.8787   -24227.623   -1173.4718    203.41953    39.441288    35.570069    26.786536 
   31600    240.20567    -383.4813       229892   -22549.604    1707.6778   -24257.282   -933.13816    205.27997     39.44426    35.567916    26.791683 
   31800     239.4497   -426.45426       229892   -22482.545    1702.3035   -24184.849   -1111.0817    205.09831     39.44407    35.567842    26.788669 
   32000    228.58394   -443.76292       229892    -22585.68    1625.0562   -24210.736   -1209.7855    205.28958    39.441746    35.564946    26.781867 
   32200    229.81724   -457.69096       229892   -22581.671     1633.824   -24215.495   -1234.7355    205.59621    39.442123    35.561819    26.802498 
   32400    235.89678   -357.89211       229892   -22598.688    1677.0449   -24275.733   -832.83491    207.09125    39.442682    35.561159    26.811595 
   32600    236.41458     -438.126       229892   -22548.943    1680.7261   -24229.669   -1199.3559    209.75648    39.443035    35.560648    26.814831 
   32800    233.68769   -393.34893       229892   -22541.299      1661.34   -24202.639   -1004.5441    209.58234    39.442983    35.560304    26.806517 
   33000    237.11263   -442.64743       229892    -22533.44    1685.6887   -24219.129   -1244.9537    209.68603    39.441893    35.561557    26.793484 
   33200    238.80619   -391.77313       229892   -22538.871    1697.7286     -24236.6   -1001.7415    211.11567    39.438997    35.561404    26.777128 
   33400    226.73276   -360.49515       229892   -22563.326    1611.8958   -24175.222   -866.68018    213.08436    39.435928    35.561429    26.761238 
   33600    232.41441    -337.3697       229892   -22568.334     1652.288   -24220.622   -756.89227    214.04665    39.434828    35.562492     26.77019 
   33800    239.06102   -428.74328       229892   -22464.142    1699.5403   -24163.683   -1117.8351    215.08699    39.435243    35.563261    26.779289 
   34000    231.42447   -301.76955       229892   -22547.722    1645.2502   -24192.972   -635.69044    216.08806    39.435187    35.563393    26.777607 
   34200    235.50188    -387.4066       229892   -22542.901    1674.2375   -24217.139   -991.54386    218.71221     39.43478    35.563733    26.783962 
   34400     233.5652   -377.64777       229892     -22602.4    1660.4692   -24262.869   -953.38392    219.72338    39.436263    35.565772    26.766061 
   34600    240.94778   -416.40328       229892    -22462.57    1712.9536   -24175.524   -1084.5159    219.62017    39.434523    35.564616    26.741848 
   34800    234.72364    -188.2961       229892   -22551.785    1668.7048    -24220.49   -207.67369    220.43148    39.435457    35.565807    26.738573 
   35000    226.10175   -311.41632       229892   -22612.916    1607.4098   -24220.326   -673.56997    222.30969    39.433444     35.56749    26.735687 
   35200    231.82273   -140.46074       229892   -22503.804    1648.0816   -24151.886    -8.625896    222.94046    39.434269    35.568422    26.718783 
   35400    238.01186   -384.34252       229892   -22502.751    1692.0816   -24194.832   -954.44137    222.60058    39.436103    35.568811    26.714908 
   35600     235.6329   -500.67005       229892   -22523.649     1675.169   -24198.818   -1429.4015    223.26687    39.437333    35.569526     26.72315 
   35800    237.86775   -515.46777       229892   -22440.264     1691.057   -24131.321   -1501.3617    224.92519     39.43462    35.570478    26.727886 
   36000    228.60246   -300.51245       229892   -22557.275    1625.1879   -24182.463   -641.98129    225.69214    39.435114    35.570506    26.733622 
   36200    234.20379   -287.17877       229892   -22584.156    1665.0091   -24249.165   -552.45569    227.02179     39.43571     35.56853    26.725956 
   36400     232.3233   -338.58051       229892   -22517.969    1651.6402   -24169.609   -791.20503    228.09764    39.437275     35.56728     26.72564 
   36600    234.55603   -468.75603       229892   -22479.581    1667.5133   -24147.095   -1275.3086    229.72787    39.436634    35.569108     26.73696 
   36800    234.47588    -517.1711       229892   -22531.648    1666.9434   -24198.592   -1469.0325    231.10706    39.437543    35.568751    26.741326 
   37000    232.31588   -265.66051       229892   -22561.178    1651.5875   -24212.766   -520.31264    232.22082    39.436167    35.570621    26.751147 
   37200    228.91837   -241.77219       229892   -22576.548    1627.4338   -24203.982   -380.29319    235.19938    39.435179    35.572206     26.78019 
   37400     230.2833    -289.1704       229892   -22570.614    1637.1374   -24207.752   -561.33964    235.85321    39.434072    35.570364    26.789122 
   37600    234.45698   -343.99555       229892   -22601.592    1666.8091   -24268.401   -776.53752    236.84651    39.435295    35.569515    26.792869 
   37800    230.28535   -313.89893       229892   -22670.177     1637.152   -24307.329   -715.78974    237.58729    39.435317    35.567647    26.800893 
   38000     238.6409    -423.7965       229892    -22551.35    1696.5535   -24247.903   -1080.8865    239.24754    39.435842    35.566056    26.800918 
   38200    234.32006   -421.50343       229892    -22588.53    1665.8356   -24254.365   -1091.8486    241.91439     39.43379    35.565257    26.803454 
   38400    239.93937   -328.48311       229892   -22529.692    1705.7846   -24235.476   -700.11439    242.92945    39.432652    35.567485    26.811427 
   38600    234.07313   -421.41636       229892   -22583.531    1664.0802   -24247.611   -1114.7762    244.73056    39.432431      35.5665    26.838587 
   38800    238.18792   -501.36352       229892   -22595.797    1693.3332   -24289.131   -1405.1614    245.20076    39.432365    35.565344    26.840213 
   39000    241.07758   -296.16906       229892   -22549.797    1713.8764   -24263.673   -610.79782    245.20885    39.433816    35.566226    26.826489 
   39200    235.90553    -358.1189       229892       -22642    1677.1071   -24319.107   -819.14607    245.42782    39.432736    35.564523    26.819386 
   39400    230.31906   -423.43347       229892   -22607.864    1637.3916   -24245.256   -1086.9927    246.40319    39.430852    35.563108    26.811745 
   39600    240.91096    -319.5044       229892   -22546.078    1712.6919    -24258.77   -671.48188    247.86221    39.430397    35.564023    26.808638 
   39800    234.87474   -378.49777       229892   -22564.812     1669.779   -24234.591   -967.85981    248.69524     39.42857    35.564299    26.811561 
   40000    235.99297   -253.49379       229892   -22524.988    1677.7288   -24202.717   -462.91632    249.91888     39.42631    35.565489    26.821498 
   40200     232.0167   -509.57587       229892   -22550.353    1649.4605   -24199.814   -1421.1213    250.67517    39.427022    35.566603    26.801466 
   40400    229.26612   -499.37698       229892   -22613.124     1629.906    -24243.03   -1403.1316    248.86001    39.426399    35.568301    26.770002 
   40600    232.91563   -315.89911       229892   -22481.675    1655.8512   -24137.526   -646.95563    249.53735    39.429393    35.569585     26.76929 
   40800    231.24318   -356.28987       229892   -22573.615    1643.9614   -24217.577   -845.61754    250.60247    39.429826    35.571705     26.75598 
   41000    239.56548   -386.08328       229892   -22517.058    1703.1266   -24220.185   -989.10585    252.71396    39.429553    35.569771    26.761222 
   41200    242.52119   -457.76194       229892    -22438.45    1724.1394   -24162.589   -1252.8652    254.00936    39.428817    35.566432    26.754349 
   41400    234.26397   -257.85466       229892   -22494.446    1665.4369   -24159.883    -520.3934    253.90329    39.429328     35.56532    26.755748 
   41600    236.37218   -266.08142       229892   -22465.865    1680.4247   -24146.289   -498.68238    254.77193     39.42819    35.562609    26.747982 
   41800    240.39253   -233.48921       229892   -22486.702    1709.0063   -24195.709   -384.88712    257.19085    39.425698    35.563954    26.738711 
   42000    233.90162   -380.86663       229892    -22493.07    1662.8609   -24155.931   -909.49216    258.76558    39.425247    35.562246     26.74775 
   42200    228.85937    -364.3318       229892   -22542.999    1627.0144   -24170.013   -876.69918    259.36452    39.426508    35.562313    26.742739 
   42400    235.46818   -460.24839       229892   -22487.298    1673.9979   -24161.296   -1298.5289    260.38878    39.428479     35.55979    26.726601 
   42600    231.77708   -327.59032       229892   -22541.902     1647.757   -24189.659   -745.71275    261.01471    39.426919    35.560058    26.726315 
   42800    241.54839   -323.19486       229892   -22503.014    1717.2236   -24220.237    -712.4431    260.63805    39.427806    35.559516    26.714904 
   43000    234.70067   -376.21731       229892   -22523.701    1668.5415   -24192.243   -953.29708    259.30175    39.427803    35.557908      26.7168 
   43200    240.08468   -360.21735       229892   -22552.306    1706.8177   -24259.123   -826.46077     260.6872    39.427152    35.556804    26.733882 
   43400     232.4392   -351.22293       229892   -22509.399    1652.4642   -24161.863   -816.58778    261.91239    39.426877    35.557986    26.735675 
   43600    234.72299    -376.9613       229892   -22561.327    1668.7002   -24230.027   -943.49891    262.22835    39.427284    35.556717     26.75377 
   43800    234.94013   -313.14332       229892   -22578.099    1670.2439   -24248.343   -674.81384    263.88315    39.426486    35.557426    26.744363 
   44000    228.24587   -444.18003       229892   -22637.207    1622.6528    -24259.86   -1219.1045     266.1135    39.425984    35.559162    26.770361 
   44200    238.26372   -312.76751       229892   -22574.772    1693.8721   -24268.644   -688.09843    267.67171     39.42801    35.558872    26.753407 
   44400    229.40788   -401.48021       229892   -22606.728    1630.9138   -24237.642   -1030.3051    268.75184    39.426341    35.559921    26.761484 
   44600    234.97961   -327.65624       229892   -22607.636    1670.5246   -24278.161   -715.51065     269.9423    39.426077    35.562466    26.754206 
   44800    237.58231   -368.50248       229892   -22585.413    1689.0277   -24274.441   -882.11393     272.1032    39.424821    35.564116    26.732794 
   45000    235.68809    -332.4611       229892   -22584.071    1675.5613   -24259.633   -765.00505    272.36165    39.426085    35.565541    26.751647 
   45200    237.39623    -490.4302       229892   -22537.309    1687.7048   -24225.014   -1359.4923     274.3415    39.425741    35.565593    26.764771 
   45400    230.45937   -436.17402       229892   -22600.423    1638.3891   -24238.812   -1188.9252    275.56548    39.425016    35.567429     26.77341 
   45600    236.83984   -447.31369       229892   -22507.705    1683.7494   -24191.455   -1230.5511    277.51347     39.42553    35.566066    26.753853 
   45800    239.86245   -190.71406       229892   -22560.857    1705.2378   -24266.095   -230.84145    277.88864    39.426429    35.566875     26.73721 
   46000    234.97021   -348.99625       229892   -22490.533    1670.4577   -24160.991   -792.19563    278.97378    39.427382     35.56569    26.757865 
   46200    240.77266   -490.20373       229892   -22484.165    1711.7087   -24195.874   -1406.4015    280.16838    39.427429    35.564352    26.754949 
   46400    233.89758   -391.62216       229892   -22553.348    1662.8321    -24216.18   -951.29452    280.12175    39.428109    35.565259    26.768344 
   46600    231.55272   -311.89403       229892    -22530.07     1646.162   -24176.232   -677.35621    281.34699    39.430398    35.566269    26.770406 
   46800    235.88714    -340.9085       229892   -22495.417    1676.9764   -24172.393   -785.27031    281.60342    39.430045    35.566815    26.741595 
   47000    235.77319   -312.15668       229892   -22462.802    1676.1663   -24138.968   -687.72139    283.92761    39.428821    35.566129    26.732669 
   47200    231.86127   -325.87154       229892   -22571.186    1648.3555   -24219.541   -735.64918    285.32909    39.427564    35.566453    26.727985 
   47400    232.99489   -352.83211       229892   -22546.489    1656.4147   -24202.904   -824.83857    286.86656    39.429797    35.565898     26.73508 
   47600    237.50515   -253.64323       229892   -22567.887    1688.4792   -24256.366   -467.21055    287.86719    39.428868    35.564538    26.734484 
   47800    239.16718   -307.46022       229892   -22579.373    1700.2949   -24279.668   -657.98629    286.19334    39.429405     35.56567    26.750054 
   48000    234.49678   -453.55461       229892   -22591.543     1667.092   -24258.635   -1245.2777    287.65066    39.428764    35.564676    26.752666 
   48200    238.08227    -368.5391       229892   -22616.967    1692.5821   -24309.549   -925.07702    287.63052    39.429689    35.563183    26.760187 
   48400    236.54189   -311.33816       229892    -22604.97    1681.6312   -24286.602   -696.77292    287.89012    39.428501     35.56113    26.770383 
   48600    230.87854   -186.78446       229892   -22687.892    1641.3691   -24329.261   -182.03958    287.93657    39.428383    35.564313    26.776628 
   48800    231.85337    -342.4622       229892   -22635.964    1648.2994   -24284.263   -827.91094    290.12079    39.428238    35.566719    26.790724 
   49000    235.52402   -185.35295       229892   -22643.406    1674.3949   -24317.801   -168.68355    291.40954     39.42548    35.566701    26.789747 
   49200    235.25357   -281.84221       229892   -22560.485    1672.4722   -24232.957   -530.13258    290.87637    39.426116    35.567501    26.781979 
   49400    233.65412   -431.32398       229892   -22606.333    1661.1013   -24267.434   -1151.4682    291.22137    39.423924     35.56749    26.784145 
   49600    234.24582   -352.68668       229892   -22603.371    1665.3078   -24268.679   -845.66736    292.28465    39.423511    35.567718    26.765124 
   49800    237.20874   -431.19629       229892   -22611.024     1686.372   -24297.396   -1144.1633    293.84046    39.423479    35.567011    26.783597 
   50000    231.67433   -420.04742       229892   -22623.052    1647.0266   -24270.078   -1135.3832    292.68882    39.421266    35.567655    26.798964 
   50200    232.60757   -237.10404       229892   -22557.375    1653.6612   -24211.036    -362.8404    292.41709    39.420953    35.567038    26.799239 
   50400    234.00811   -273.27667       229892   -22549.877     1663.618   -24213.495   -497.24036    297.03734    39.419307    35.567704    26.809652 
   50600    236.16267   -477.97459       229892   -22432.003    1678.9352   -24110.938    -1330.517    297.63135    39.417958     35.56944    26.817681 
   50800    223.99979   -388.59895       229892   -22587.415    1592.4665   -24179.881   -984.72523    295.68794    39.421361    35.570337    26.827087 
   51000    232.12103   -330.80058       229892   -22528.527    1650.2022   -24178.729   -762.95009    296.64238    39.423863    35.572314    26.837948 
   51200    229.55654   -287.36054       229892   -22549.037    1631.9707   -24181.008   -591.48867    297.98189    39.425634    35.574389    26.826636 
   51400     234.7448   -265.17496       229892   -22542.678    1668.8552   -24211.533   -488.26511    298.82112     39.42554     35.57369    26.837819 
   51600    233.56855   -373.95212       229892   -22587.681     1660.493   -24248.174   -927.27758    297.92928    39.425476    35.572365    26.849922 
   51800     235.0855   -429.66679       229892   -22597.352    1671.2774    -24268.63   -1111.8185    299.27578    39.425752    35.569732    26.834613 
   52000      230.154    -249.0073       229892   -22640.649    1636.2182   -24276.867   -426.27607    300.62433    39.427771     35.56909    26.833215 
   52200    227.02823   -284.43649       229892   -22636.508    1613.9964   -24250.504   -550.85181    302.21607    39.429667    35.567734    26.814533 
   52400    229.76834   -290.75523       229892   -22707.833    1633.4764   -24341.309    -598.1491    302.87577    39.429901    35.569559    26.801513 
   52600    232.48731   -325.27812       229892   -22604.816    1652.8062   -24257.622   -737.15691    302.70062    39.432347    35.570164    26.795234 
   52800    237.21884   -264.59647       229892   -22544.035    1686.4437   -24230.479   -492.70162    302.37795    39.432421    35.569581    26.795392 
   53000    236.08604   -304.96683       229892   -22530.382    1678.3904   -24208.773   -609.11288    303.98627    39.430237    35.570381    26.802011 
   53200    230.10135    -275.8296       229892   -22647.789    1635.8438   -24283.633   -545.47664    305.36521    39.430629    35.571972     26.80792 
   53400    234.50525   -210.46512       229892   -22623.137    1667.1523   -24290.289    -313.2846    306.23644    39.428305    35.572089    26.824111 
   53600     229.8473   -269.52818       229892   -22673.909    1634.0377   -24307.947   -525.47902    306.05911    39.430758    35.570545    26.815951 
   53800    229.44579   -272.54936       229892   -22617.571    1631.1833   -24248.755   -539.12012    307.57987    39.429746    35.573469    26.825415 
   54000    236.96933   -338.08043       229892    -22583.88    1684.6699    -24268.55   -782.94074    308.05417    39.430928    35.572482     26.82584 
   54200    240.53645   -384.59322       229892   -22541.467    1710.0294   -24251.496   -944.10381     308.7248    39.431303    35.574435    26.821518 
   54400     238.2003   -254.13094       229892   -22513.789    1693.4212    -24207.21   -416.78454    309.58431    39.428494     35.57734    26.820383 
   54600    242.01823   -263.75474       229892   -22557.252    1720.5637   -24277.816   -495.11516     309.0455    39.429079    35.578207      26.8164 
   54800    236.02116   -346.63843       229892   -22537.152    1677.9292   -24215.081   -820.20767    311.79396     39.42901    35.576088    26.800973 
   55000    243.68452   -220.69968       229892   -22533.514    1732.4098   -24265.924    -305.4935    311.56037    39.430044    35.575364    26.784836 
   55200     226.7441   -416.72405       229892   -22678.724    1611.9764   -24290.701   -1083.1267    312.78434     39.43005    35.573147    26.774047 
   55400    232.95329   -455.16956       229892   -22620.788     1656.119   -24276.907   -1222.6661    312.25384    39.430393    35.573423    26.783734 
   55600    229.99119    -302.5579       229892   -22589.322    1635.0607   -24224.382   -648.31436    312.07147    39.431301    35.573758    26.763254 
   55800    240.55097   -238.73474       229892   -22457.544    1710.1327   -24167.677   -398.58688    313.04636    39.433122    35.576392    26.756219 
   56000    238.03508   -346.23658       229892   -22487.372    1692.2466   -24179.618   -795.58448     315.0638    39.432758    35.577194    26.744879 
   56200    231.07091   -433.54636       229892   -22479.732    1642.7367   -24122.469   -1113.8309    314.82312    39.431379     35.57366    26.752679 
   56400    231.99279   -195.34481       229892   -22562.054    1649.2905   -24211.345   -212.39038    315.93284    39.430352    35.573471    26.732966 
   56600    229.29477   -465.77773       229892   -22636.801    1630.1097   -24266.911   -1280.4306    315.45942    39.429482    35.574146    26.712857 
   56800    227.70699   -376.80041       229892   -22572.959    1618.8218   -24191.781   -903.24242     318.5237    39.429972    35.574323    26.708763 
   57000    233.64933   -430.43957       229892   -22606.321    1661.0673   -24267.388   -1128.2531    318.59663    39.432172    35.572275    26.689651 
   57200    238.18152   -340.25746       229892   -22518.259    1693.2877   -24211.547   -735.49933    321.17132    39.432543    35.573102    26.689358 
   57400    235.52911   -213.72815       229892   -22573.491    1674.4311   -24247.923   -305.38345     321.3997    39.430106    35.575423    26.714257 
   57600    228.70771   -332.70954       229892   -22613.499    1625.9362   -24239.435   -768.69984     322.0639    39.429359    35.576327    26.711881 
   57800    239.20028   -360.26088       229892   -22570.038    1700.5303   -24270.568   -875.41912    322.47946    39.429298    35.576697    26.720162 
   58000    232.51726   -449.76679       229892   -22609.251    1653.0191    -24262.27   -1193.4632    325.43913     39.42731    35.578236    26.725467 
   58200    234.06813   -305.46358       229892   -22590.449    1664.0446   -24254.494   -642.25189    327.18726    39.426405    35.576371    26.735209 
   58400    231.89776   -297.52358       229892   -22618.448     1648.615   -24267.063   -632.07447    327.74982    39.427194    35.575223    26.722783 
   58600    234.82825   -387.10413       229892   -22618.109    1669.4485   -24287.557   -926.95266    329.54486    39.426397    35.574024     26.71748 
   58800    233.00685   -214.07481       229892    -22617.93    1656.4998    -24274.43   -278.22995    329.62034     39.42504    35.573135    26.714072 
   59000    242.01329   -395.28886       229892   -22545.867    1720.5286   -24266.395   -1008.0152    330.66809    39.423509    35.572938    26.715894 
   59200    231.36436   -517.53404       229892   -22594.812    1644.8229   -24239.635   -1467.3952    331.39981    39.421249    35.573013    26.713304 
   59400    234.89809   -347.45923       229892   -22602.408     1669.945   -24272.353   -792.57328    328.83198    39.419515    35.571689    26.706376 
   59600    229.83876   -356.83206       229892   -22630.039    1633.9771   -24264.016   -840.99008    328.45104    39.416772    35.568298    26.696541 
   59800    235.20861   -295.26043       229892   -22558.394    1672.1526   -24230.547   -559.99403    329.97051    39.414867     35.56666    26.687585 
   60000    239.08379    -396.5733       229892   -22530.298    1699.7021       -24230   -971.99529    330.97893    39.415295     35.56824    26.691211 
   60200    240.74967   -248.22984       229892   -22601.782    1711.5452   -24313.327   -401.11685    331.64322     39.41713    35.567447    26.670439 
   60400    238.27434   -256.30457       229892   -22567.651    1693.9476   -24261.599   -460.42152    332.20145    39.418024    35.567896    26.672789 
   60600    236.12193   -279.40153       229892   -22575.734    1678.6456    -24254.38    -511.9948    333.13682    39.417774    35.568221    26.672636 
   60800    239.87495   -334.40646       229892   -22460.872    1705.3266   -24166.199   -765.18104    334.59578    39.417735    35.567785    26.674112 
   61000    233.23115   -370.90304       229892   -22536.768    1658.0944   -24194.863   -893.81644    334.48137     39.41714    35.567139    26.667547 
   61200     238.8552   -403.81862       229892   -22512.046     1698.077   -24210.123   -1024.6157    337.01515    39.415961    35.567263    26.663419 
   61400    236.82046   -286.03471       229892   -22527.701    1683.6116   -24211.313   -551.42178     339.5838    39.416752    35.565626     26.67016 
   61600    237.61993    -328.6607       229892   -22534.965    1689.2952    -24224.26   -701.23312     339.8085     39.41788    35.566328      26.6836 
   61800    230.81722   -292.35858       229892     -22566.6    1640.9332   -24207.533   -564.71767    339.32504    39.419041     35.56818    26.688988 
   62000    232.02715   -502.79276       229892   -22477.747    1649.5349   -24127.281   -1414.5462    342.03979    39.418822    35.571018    26.712535 
   62200    238.78834   -289.76731       229892   -22461.212    1697.6017   -24158.813   -592.45505    341.88596    39.417477     35.56986    26.696325 
   62400    238.33407    -297.8995       229892   -22536.339    1694.3722   -24230.711   -588.68227     341.9552    39.418424    35.570731    26.683905 
   62600    234.72435   -433.58686       229892   -22576.586    1668.7099   -24245.296   -1175.5249     343.0353    39.419284    35.568659    26.674564 
   62800    233.03233   -267.65792       229892   -22641.919    1656.6809   -24298.599   -518.57242    344.14091    39.418615    35.567736    26.678313 
   63000    238.74529   -348.77437       229892    -22559.52    1697.2957   -24256.816    -820.2425    343.91198    39.418202    35.567691    26.668732 
   63200    235.08624   -388.14808       229892    -22606.95    1671.2826   -24278.232   -998.41357    345.54237    39.419152    35.567879    26.667583 
   63400     227.5331   -506.94418       229892   -22649.885    1617.5856   -24267.471   -1461.1462    346.79748    39.420202    35.568476    26.659122 
   63600    226.59921   -467.85406       229892   -22662.859    1610.9463   -24273.806   -1278.6207    348.31348    39.422628    35.569321    26.658733 
   63800    230.04478   -335.73296       229892   -22667.867    1635.4417   -24303.309   -782.88241    348.87123    39.421808    35.569903    26.658565 
   64000    238.07364   -287.07106       229892    -22599.39    1692.5208   -24291.911   -545.79088    349.98855    39.421213    35.569852     26.66535 
   64200    237.44251   -383.52991       229892   -22615.301    1688.0339   -24303.335   -913.22674    351.02398    39.421421    35.568918    26.673968 
   64400    231.88088   -196.23088       229892    -22648.63     1648.495   -24297.125   -235.53967    352.74688     39.42311     35.56693    26.675883 
   64600    228.25952    -462.9665       229892   -22638.978    1622.7498   -24261.728   -1304.9065     354.0959    39.422949    35.564871    26.663896 
   64800    235.73496   -374.80419       229892   -22612.208    1675.8945   -24288.102   -933.50655    355.49884    39.423739    35.566353    26.652703 
   65000    240.25584   -291.54409       229892   -22519.075    1708.0345   -24227.109   -544.33025    354.15976    39.423261    35.568099     26.65394 
   65200    229.31359   -272.74114       229892   -22565.872    1630.2435   -24196.116   -526.43206    354.70232     39.42354    35.570713    26.664926 
   65400    235.42525   -507.18204       229892   -22594.625    1673.6927   -24268.318   -1421.7423    356.70352    39.421408    35.570759    26.673059 
   65600    240.84234   -344.73674       229892   -22549.398    1712.2041   -24261.602   -815.06153    358.54331    39.420511    35.573849    26.672029 
   65800    232.14816    -430.1757       229892     -22602.7    1650.3951   -24253.095    -1135.829    356.89988    39.419958    35.575619    26.669489 
   66000    235.47553   -424.58695       229892   -22585.616    1674.0502   -24259.666   -1126.6296    357.28579    39.420993    35.578199    26.672925 
   66200    225.61171   -469.03224       229892   -22631.355     1603.926   -24235.281   -1268.2193    357.35168    39.421851    35.579578    26.670152 
   66400    230.24973   -304.24851       229892   -22622.226    1636.8988   -24259.125   -644.74782    360.46874    39.422439    35.580289    26.678164 
   66600    235.51393   -258.15722       229892   -22673.457    1674.3232    -24347.78   -429.14977    359.29341    39.422058    35.582727    26.706157 
   66800    230.46532    -403.2827       229892   -22654.074    1638.4314   -24292.505    -1006.446    359.41704    39.421331    35.583561    26.693026 
   67000    229.08502   -400.42225       229892   -22717.077    1628.6186   -24345.696   -1026.1791    360.26573    39.421823    35.582264    26.696175 
   67200    237.22625   -214.22887       229892   -22660.074    1686.4964   -24346.571   -301.33614    361.38628    39.423744    35.583769    26.695177 
   67400    228.29883   -385.67824       229892   -22608.775    1623.0294   -24231.805   -935.79739    361.84768    39.421694    35.584421    26.680553 
   67600    238.12095   -330.30111       229892   -22535.801    1692.8571   -24228.659     -714.422    360.04843    39.418799    35.586287    26.685864 
   67800    237.03028   -418.75527       229892   -22546.059    1685.1032   -24231.162   -1102.5237    362.47915    39.419326    35.588649    26.710904 
   68000    230.51711    -295.9936       229892   -22632.248    1638.7996   -24271.048   -595.54122    363.20502    39.419334    35.588592    26.723338 
   68200    230.57583   -324.56131       229892   -22598.979    1639.2171   -24238.196   -720.55977    364.12978     39.41645    35.589141    26.734214 
   68400    237.97682   -490.79217       229892   -22547.141    1691.8324   -24238.973   -1349.4096     365.4302    39.415112    35.588445    26.741086 
   68600     235.8443   -496.07364       229892   -22596.543    1676.6719   -24273.215    -1416.714     367.0805    39.413503    35.588011    26.747918 
   68800    234.81225   -315.19121       229892   -22545.254    1669.3348   -24214.589    -677.3337    366.91187     39.41425    35.588747    26.767931 
   69000    237.34662   -382.61327       229892   -22567.742    1687.3522   -24255.095   -964.85387    367.06687    39.416119    35.587829    26.791737 
   69200    229.70038   -366.57973       229892   -22633.746    1632.9933   -24266.739   -861.28923    367.80606    39.416845    35.585839    26.787962 
   69400    229.86956   -313.65688       229892    -22656.48     1634.196   -24290.676   -665.83492    368.19249    39.416081    35.589248    26.787251 
   69600    238.59476   -348.38569       229892   -22530.266    1696.2255   -24226.492   -767.88513    369.34722    39.415172    35.592046    26.778445 
   69800    234.31732   -267.16533       229892   -22597.977    1665.8162   -24263.793   -488.35794    369.60871    39.413316    35.590798    26.761825 
   70000    239.05778   -408.79165       229892   -22678.683    1699.5172     -24378.2   -1074.1181    369.85794    39.412453    35.591335    26.755097 
   70200    242.11111   -418.97065       229892   -22577.894     1721.224   -24299.118   -1067.9102    370.19372    39.410471    35.592098    26.754951 
   70400    235.30699    -151.5666       229892   -22592.769    1672.8519    -24265.62   -5.1263313    371.20977    39.408782    35.591427     26.73283 
   70600    236.30865    -415.3833       229892   -22636.663     1679.973   -24316.636   -1071.4818    371.52523    39.405994    35.590735    26.712816 
   70800    239.20898   -495.53428       229892   -22623.581    1700.5921   -24324.173   -1407.4973    370.99782    39.408764    35.591866    26.697866 
   71000    235.50982   -386.01201       229892   -22608.499    1674.2939   -24282.793   -1017.6615    371.00927    39.410123    35.592334    26.704479 
   71200     231.3073   -329.35834       229892   -22600.827    1644.4172   -24245.244   -703.64297    371.39787    39.408666    35.593194    26.718973 
   71400    234.60146   -395.77329       229892   -22606.278    1667.8362   -24274.114   -1033.3657     371.8067    39.406708     35.59062    26.709505 
   71600    242.47469   -366.22934       229892   -22561.851    1723.8088   -24285.659   -867.65838    372.13357    39.405742    35.592141    26.713845 
   71800    235.73815   -379.22827       229892   -22679.029    1675.9172   -24354.947   -948.08366    375.35638    39.406136    35.592523    26.724772 
   72000    228.69817   -339.97969       229892   -22659.124    1625.8683   -24284.992   -785.17394    377.08711    39.408571    35.591125    26.742257 
   72200    241.28214   -221.01138       229892   -22526.131    1715.3307   -24241.462   -307.75131    375.30239    39.409505     35.59058    26.739322 
   72400     229.5335   -549.33443       229892   -22573.494    1631.8069   -24205.301   -1599.5287    378.36546    39.405977     35.58994     26.71295 
   72600    234.53943   -250.18161       229892     -22539.8    1667.3952   -24207.195   -417.27041    378.14407    39.404909    35.589051    26.685855 
   72800    237.76968   -352.46021       229892   -22580.862    1690.3598   -24271.221   -816.22352    379.93057    39.406679    35.587077     26.68439 
   73000    230.47597   -274.65937       229892   -22640.605    1638.5071   -24279.112   -506.93093    380.35107    39.407712    35.588431    26.689163 
   73200    237.37653   -352.47941       229892   -22557.684    1687.5648   -24245.249    -823.4709     381.1678    39.408659    35.588991    26.680931 
   73400    235.82322   -437.28299       229892   -22534.013    1676.5219   -24210.535   -1190.6418    381.98361    39.408866    35.589984    26.677494 
   73600    231.32521   -264.92534       229892   -22544.281    1644.5446   -24188.826   -473.00893     382.8252    39.408875    35.589203    26.685607 
   73800    226.44094   -377.77938       229892   -22624.988    1609.8212   -24234.809   -933.45341    383.93015    39.410467    35.587362    26.677469 
   74000    233.82815   -352.53608       229892   -22600.698    1662.3385   -24263.037   -850.62278    384.61748    39.412169    35.586156    26.676684 
   74200     238.8185   -472.53792       229892   -22503.193    1697.8161   -24201.009   -1316.6916    384.93764    39.409813    35.588198     26.69264 
   74400    233.49211   -355.32307       229892   -22511.245    1659.9496   -24171.195   -830.24707    385.55892    39.410685    35.589576    26.690555 
   74600     231.6392   -370.91453       229892   -22532.612    1646.7768   -24179.389   -878.67739    384.04841      39.4117    35.591707    26.721362 
   74800    231.82682   -389.16644       229892   -22569.488    1648.1107   -24217.599   -988.20808    385.45188     39.41255    35.594225    26.732093 
   75000    231.95762   -518.95426       229892   -22576.063    1649.0405   -24225.104   -1511.0181    386.07585    39.412524    35.594436    26.744151 
   75200    236.32058   -373.90317       229892    -22486.76    1680.0578   -24166.818   -914.61282    387.68608    39.413056    35.594555    26.754915 
   75400    235.95753   -291.17132       229892   -22579.587    1677.4768   -24257.064   -619.87826    389.55458    39.413649    35.594424    26.755174 
   75600    241.58845   -367.68321       229892   -22534.972    1717.5083    -24252.48   -844.43219    390.72108    39.413987    35.594869    26.756501 
   75800    236.22845    -374.5303       229892   -22496.165    1679.4029   -24175.568   -981.59258    391.36532    39.415234    35.597317    26.765966 
   76000    235.41136   -174.06568       229892   -22486.669     1673.594   -24160.263   -116.10092     393.7809    39.414978     35.59985    26.765916 
   76200    232.90724    -328.4801       229892   -22565.662    1655.7916   -24221.454   -749.75037    395.91923    39.415171    35.602515    26.752571 
   76400    234.36475     -254.032       229892   -22569.148    1666.1534   -24235.301   -457.56462    397.80123    39.414926    35.604783    26.759789 
   76600    232.52117   -428.98845       229892   -22549.995     1653.047   -24203.042   -1149.7803     400.3462    39.417086    35.606636    26.763222 
   76800    237.76895   -273.59721       229892   -22588.961    1690.3547   -24279.315   -507.90056    401.48997    39.418631    35.607151    26.751955 
   77000    237.46173   -351.66787       229892   -22616.929    1688.1705     -24305.1   -792.31696    402.35599    39.418334    35.607729    26.743012 
   77200    237.35551   -344.17178       229892   -22599.182    1687.4154   -24286.598   -800.61303    402.96295    39.419314    35.607566    26.749916 
   77400     235.0735   -308.78786       229892   -22613.393     1671.192   -24284.585   -629.69249    404.64122    39.419232    35.605385    26.742713 
   77600    235.74142   -233.17616       229892   -22622.121    1675.9405   -24298.061    -330.3657    404.72129    39.420183     35.60769    26.752207 
   77800     236.5563   -247.63373       229892    -22628.87    1681.7336   -24310.603   -397.70505    404.92176    39.421861    35.610206    26.766734 
   78000    236.28736   -288.86434       229892   -22641.335    1679.8216   -24321.157   -582.43228    406.64257    39.420872    35.609735    26.786514 
   78200    234.72237   -265.13967       229892   -22633.977    1668.6958   -24302.673   -473.07191     406.5425    39.419278    35.611079    26.821204 
   78400    232.13373   -381.92221       229892   -22577.845    1650.2925   -24228.138   -1002.0612    407.70305    39.418381    35.613686    26.844854 
   78600    233.14085   -372.62308       229892   -22561.505    1657.4524   -24218.957   -896.22675    410.36818    39.420335    35.615001    26.830275 
   78800    234.41055   -411.62373       229892   -22516.196     1666.479   -24182.675   -1059.4167    410.84457    39.420889    35.614983    26.844171 
   79000    231.35126   -373.99144       229892   -22546.441    1644.7298    -24191.17   -945.55578    410.19614    39.419692    35.613544    26.844121 
   79200    244.19349    -187.2863       229892   -22497.103    1736.0282   -24233.131    -178.9499    411.34132    39.416943     35.61217    26.847548 
   79400    243.09793   -417.80741       229892   -22515.737    1728.2396   -24243.976   -1064.3567    410.76459    39.415484    35.611423     26.86824 
   79600    238.26337   -315.79819       229892   -22575.394    1693.8696   -24269.263   -650.83939    410.31106    39.413196    35.612216    26.883288 
   79800     231.3656   -300.48801       229892   -22551.325    1644.8317   -24196.157   -623.27111    410.04644    39.411726    35.613762    26.891479 
   80000    234.80518   -481.70386       229892   -22589.571    1669.2845   -24258.856   -1337.4227    410.15376    39.410242    35.613599     26.88135 
   80200    232.99762   -353.39689       229892   -22622.196    1656.4341    -24278.63   -869.44188    411.37106    39.411488    35.612741    26.863316 
   80400    233.84655    -399.2717       229892   -22654.468    1662.4694   -24316.937   -1024.6392    413.35283    39.411656     35.61166    26.862378 
   80600     233.5262   -345.60199       229892   -22628.913    1660.1919   -24289.105    -783.9744    414.01152    39.411696    35.612121    26.864213 
   80800    231.45757   -241.38589       229892   -22599.193    1645.4856   -24244.678   -379.32123    414.41851    39.410371    35.615771    26.881852 
   81000    236.95548   -416.74641       229892   -22624.662    1684.5715   -24309.234     -1094.79    414.00778    39.410787    35.616295    26.851503 
   81200    231.38165    -290.5555       229892   -22562.084    1644.9458    -24207.03   -571.97959    415.33773     39.41088    35.618037    26.863565 
   81400    235.76705   -244.75299       229892   -22551.819    1676.1227   -24227.942   -430.38733    414.62618    39.412384    35.619586    26.843776 
   81600    229.20497    -455.9285       229892   -22643.607    1629.4713   -24273.079   -1244.2401    416.42439    39.414542    35.622444    26.837635 
   81800    227.72547   -515.58557       229892   -22677.453    1618.9532   -24296.406   -1490.5914    417.63472    39.415493    35.621811    26.831798 
   82000    229.13586   -367.11185       229892   -22593.593      1628.98   -24222.573   -896.62244    417.43453    39.416233    35.622239    26.827094 
   82200    233.70034   -425.35103       229892   -22522.112    1661.4299   -24183.542   -1130.6551    418.88056     39.41691    35.623609    26.827515 
   82400    234.60612   -376.96164       229892   -22570.721    1667.8693    -24238.59     -953.809    419.50153    39.417611    35.625552    26.840222 
   82600    241.61995   -324.20239       229892   -22508.285    1717.7323   -24226.018   -731.66492    419.58028    39.418024    35.626329    26.840118 
   82800    233.62205   -475.17891       229892   -22591.376    1660.8733    -24252.25   -1328.5014    422.01759    39.418946     35.62776    26.854963 
   83000    243.13645   -394.24021       229892   -22482.194    1728.5134   -24210.707   -1014.0611    422.35275    39.419067    35.629177    26.872923 
   83200     240.4284   -280.08461       229892   -22498.919    1709.2612    -24208.18   -585.80033    423.58734    39.417968    35.629606    26.876576 
   83400    235.02427   -480.64226       229892   -22498.012    1670.8421   -24168.854   -1341.3788    423.67455    39.421935    35.630674    26.854444 
   83600    231.51866   -453.27097       229892   -22636.923    1645.9199   -24282.843   -1203.1577    424.33475     39.42275     35.62882     26.83536 
   83800    239.67371   -257.15484       229892   -22592.787     1703.896   -24296.683   -476.46484    424.85313    39.423387    35.628737    26.833039 
   84000    237.28028   -298.32566       229892   -22601.052    1686.8805   -24287.933   -611.05479    427.56981    39.425206    35.631146    26.841462 
   84200    235.00375   -435.51144       229892   -22568.189    1670.6962   -24238.886   -1175.0633    428.81241    39.427636     35.63268    26.833872 
   84400    232.36319   -470.81407       229892    -22614.07    1651.9238   -24265.994   -1308.8847    427.63152    39.428537    35.633136    26.833493 
   84600    234.47518   -344.18818       229892   -22548.491    1666.9384   -24215.429   -816.04729    428.18271     39.42947    35.631615    26.826446 
   84800     235.9419   -419.96244       229892   -22587.267    1677.3657   -24264.633   -1119.7136    429.55536    39.429612    35.633805    26.849693 
   85000    240.28259   -406.80289       229892   -22556.136    1708.2247    -24264.36   -1038.7287    427.62578    39.429818    35.634842    26.830808 
   85200     234.3481   -293.99536       229892   -22568.863     1666.035   -24234.898   -640.12557     428.4094    39.428892      35.6365    26.841829 
   85400    229.90303   -351.45895       229892   -22654.943     1634.434   -24289.377   -819.20649    429.17534    39.427357    35.636833    26.835148 
   85600    230.79175   -199.66536       229892   -22616.399    1640.7521   -24257.151   -256.46035    429.84352    39.425744    35.639106    26.844345 
   85800    234.63717   -430.90376       229892   -22615.173    1668.0901   -24283.263   -1157.5729    431.57942    39.424408    35.639811    26.835557 
   86000       232.93   -430.68048       229892   -22564.366    1655.9534    -24220.32   -1130.6956    430.93485    39.423467    35.642409    26.841216 
   86200    236.19793   -496.35646       229892   -22553.347    1679.1859   -24232.533   -1358.7468    429.13771    39.425122    35.645131    26.843658 
   86400    235.07661   -459.26844       229892   -22624.471    1671.2141   -24295.685   -1218.4194    430.66739    39.424967    35.645833    26.837602 
   86600    235.34135   -222.32208       229892   -22569.987    1673.0963   -24243.084   -347.12356     430.7971    39.424237    35.646079    26.821806 
   86800    232.01063   -454.11968       229892   -22615.463    1649.4174    -24264.88   -1220.2838    432.75544    39.421745    35.643761     26.80466 
   87000    232.99402   -260.20716       229892    -22586.03    1656.4086   -24242.439   -458.26227    433.78926    39.422733    35.645111    26.788582 
   87200    239.12803   -372.63249       229892    -22545.04    1700.0166   -24245.056   -898.67403    433.66883    39.422763    35.643588    26.775369 
   87400      233.644    -303.5115       229892   -22655.083    1661.0294   -24316.113   -625.72556    435.94945    39.423044    35.642889    26.775383 
   87600    234.42412   -453.30064       229892   -22546.194    1666.5754    -24212.77   -1208.1749    434.59957    39.423424    35.640738    26.757319 
   87800    231.90737   -332.50179       229892   -22599.847    1648.6833    -24248.53   -741.84193    436.05928    39.423173    35.639478    26.741633 
   88000    235.58124   -434.78904       229892   -22605.637    1674.8017   -24280.439   -1145.9308     437.6853    39.423618    35.638572    26.731857 
   88200    235.85508   -345.82911       229892   -22628.996    1676.7485   -24305.744   -771.38818    438.39204    39.426666     35.63731    26.730285 
   88400    238.07826   -492.66165       229892   -22557.776    1692.5535    -24250.33   -1424.4016    438.66591    39.427529    35.639031    26.739445 
   88600    232.30288   -464.78226       229892   -22588.006    1651.4951   -24239.501   -1288.9702    438.93323    39.427888    35.637014    26.749921 
   88800    234.95472   -104.48019       229892   -22630.311    1670.3476   -24300.658    139.10974    437.34368    39.429316     35.63714    26.768762 
   89000    238.10304   -299.23051       229892   -22547.535    1692.7297   -24240.265   -693.71135     439.1767    39.429672     35.63444    26.791138 
   89200     242.1879   -357.64714       229892    -22536.35    1721.7699    -24258.12   -880.48397    440.82922    39.429425    35.630654    26.783583 
   89400    234.27643   -483.83022       229892   -22514.235    1665.5255   -24179.761   -1350.9908     442.8483    39.429185    35.627536    26.779434 
   89600    233.40759   -356.04782       229892   -22626.122    1659.3487   -24285.471   -866.42165    442.17108    39.428974    35.625069    26.754575 
   89800    233.77615   -260.15432       229892   -22548.832    1661.9689     -24210.8    -520.6717    442.25679    39.428104    35.626604    26.741056 
   90000    231.01141   -541.23423       229892   -22538.288    1642.3137   -24180.601    -1567.029    444.33035    39.427172    35.626521    26.727806 
   90200     228.9676   -431.03753       229892   -22565.812    1627.7838   -24193.596   -1173.2783    446.02499    39.427443    35.626627    26.706843 
   90400    238.45604   -249.26101       229892   -22541.813    1695.2393   -24237.052   -423.74005    446.57155    39.428296    35.625185    26.695509 
   90600    235.52615    -258.6114       229892   -22574.609      1674.41   -24249.019    -449.3602    448.61642    39.428531    35.626888    26.693958 
   90800    233.49744   -604.34774       229892   -22591.014    1659.9875   -24251.002   -1829.5964    450.49196    39.429173     35.62695    26.705704 
   91000    229.87795   -232.03253       229892   -22616.372    1634.2557   -24250.628   -350.21852    450.36864    39.429554    35.626294    26.721333 
   91200    227.92779    -350.5438       229892   -22686.453    1620.3916   -24306.845   -854.12768    451.35811    39.426774    35.629615    26.737648 
   91400    233.13155   -340.81528       229892   -22618.438    1657.3863   -24275.825   -820.84524    452.66999     39.42583    35.630072    26.749164 
   91600    239.67854   -341.19646       229892   -22503.615    1703.9304   -24207.546   -808.04543    453.05656    39.424902    35.629593    26.746624 
   91800    238.43246   -298.42023       229892   -22519.709    1695.0716    -24214.78   -604.79692    453.20989    39.423502    35.628961    26.739337 
   92000    236.22386   -253.03644       229892   -22512.889    1679.3702   -24192.259   -462.44532    453.57059    39.423695    35.628348    26.733383 
   92200     230.3691    -346.3719       229892   -22550.917    1637.7474   -24188.664   -812.23372    455.73908    39.420809    35.628478    26.742341 
   92400    239.00911   -326.60303       229892   -22551.027    1699.1712   -24250.198   -740.10271    457.10609    39.420238    35.631753    26.750657 
   92600    242.56046   -464.60374       229892    -22541.74    1724.4185   -24266.159   -1296.0748      458.428     39.41964    35.630858     26.75365 
   92800    226.59453   -302.24042       229892   -22620.549    1610.9131   -24231.462   -606.60842    458.69322     39.42067    35.630808    26.758695 
   93000    228.08342   -316.28711       229892   -22616.557     1621.498   -24238.055   -717.91022     458.5377    39.421235    35.630971      26.7492 
   93200    233.28615   -252.81038       229892    -22552.69    1658.4853   -24211.176   -433.94596    460.98342    39.423735    35.630936     26.77366 
   93400    232.60152   -257.25618       229892   -22620.116    1653.6182   -24273.734   -503.29767    461.13848    39.424986    35.631954    26.767372 
   93600    234.01428   -515.51087       229892   -22578.109    1663.6618   -24241.771   -1485.2813    463.27464    39.423979    35.631731    26.776048 
   93800    228.68089   -365.73597       229892   -22623.364    1625.7455   -24249.109   -892.99387    464.65851    39.424264    35.631635    26.775126 
   94000    238.12023   -422.37284       229892    -22647.85     1692.852   -24340.702   -1099.9216    465.14206    39.423632    35.634072    26.777455 
   94200    241.16673   -386.97475       229892   -22547.757    1714.5102   -24262.267   -926.00423    464.78908     39.42523     35.63438    26.775148 
   94400     230.2416   -407.50797       229892   -22574.236    1636.8409   -24211.077   -1050.3059    466.08537    39.423898    35.634307    26.747882 
   94600     236.1549   -401.26622       229892   -22590.265      1678.88   -24269.145   -1039.0133    464.95991     39.42462    35.634112    26.737763 
   94800    235.35548    -412.8952       229892   -22587.057    1673.1967   -24260.254   -1051.4031    466.68321    39.424639    35.632671    26.732367 
   95000    240.81586   -427.94597       229892   -22651.622    1712.0158   -24363.637   -1132.0119    466.68764    39.426114    35.631791    26.743775 
   95200    234.54534   -467.10866       229892   -22650.575    1667.4372   -24318.013   -1299.5013    468.95097    39.426941    35.632037    26.768426 
   95400    239.24702   -339.74274       229892    -22635.07    1700.8626   -24335.933    -778.8727    468.96242    39.427786    35.632042    26.771436 
   95600    229.36497   -285.58922       229892   -22623.893    1630.6088   -24254.501   -559.45613    471.26539    39.427854    35.632857    26.788825 
   95800    235.80471   -331.64898       229892   -22611.127    1676.3904   -24287.518   -749.11556    471.90801    39.426129    35.631539    26.794932 
   96000    234.58522   -307.20402       229892   -22582.596    1667.7208   -24250.317    -616.5661    472.43978    39.424159    35.629956     26.80667 
   96200    238.21147   -303.05572       229892   -22527.612    1693.5006   -24221.113   -627.89664    472.75104    39.423559     35.62794    26.800365 
   96400    234.61265   -320.20545       229892   -22615.275    1667.9158   -24283.191   -694.12734    474.28219    39.423229    35.627555    26.812294 
   96600    234.80609   -182.37915       229892   -22636.611     1669.291   -24305.902   -169.83842    474.80155    39.424551    35.625141    26.790219 
   96800    235.06742   -305.58913       229892   -22586.848    1671.1488   -24257.997   -644.05761    476.43918    39.424944    35.623741    26.783223 
   97000      232.818   -433.93545       229892   -22598.292    1655.1572    -24253.45   -1138.5897    478.74117    39.423528    35.624117    26.760117 
   97200    231.61609   -453.14431       229892   -22613.065    1646.6125   -24259.678    -1235.867    478.28482    39.423943    35.621692    26.756561 
   97400    228.17411   -449.71216       229892   -22596.046    1622.1427   -24218.189   -1179.0748    477.51614    39.425169    35.619477    26.765844 
   97600    243.84689   -358.31292       229892   -22553.886    1733.5641    -24287.45   -850.58936    479.02912    39.425728    35.618397    26.760833 
   97800    245.08529   -271.33252       229892   -22605.894    1742.3682   -24348.262   -522.75417    479.72541    39.425232    35.617025    26.779393 
   98000    233.37798   -210.92788       229892   -22660.645    1659.1382   -24319.783   -298.64086     478.5352    39.426155    35.617952    26.777515 
   98200    232.35623   -476.82934       229892   -22687.523    1651.8743   -24339.397    -1303.237    480.75426    39.427168    35.618202    26.780951 
   98400    236.23964   -357.33622       229892   -22591.299    1679.4824   -24270.781   -858.50248    479.44545    39.426507    35.617972    26.790577 
   98600    235.16165    -298.5029       229892   -22610.555    1671.8187   -24282.373    -605.5273    480.10417    39.425113    35.615486     26.78139 
   98800    235.74565   -415.24004       229892   -22586.995    1675.9705   -24262.966   -1141.7743     480.3377    39.424786     35.61511    26.773946 
   99000    233.74532   -228.62159       229892   -22635.884    1661.7497   -24297.633   -370.59396    482.48985    39.423361    35.614096    26.771897 
   99200    235.69123   -234.35147       229892   -22589.285    1675.5837   -24264.868   -442.71968    482.80193    39.422858    35.613517    26.795336 
   99400     237.1161   -253.62484       229892   -22579.248    1685.7134   -24264.961   -412.04888    483.16682    39.422115    35.614193    26.792555 
   99600    237.03962   -367.98358       229892   -22571.511    1685.1697    -24256.68   -929.49325     482.5761    39.421337    35.613242    26.803123 
   99800    233.92463   -495.98353       229892   -22555.519    1663.0245   -24218.544   -1413.5241    483.01733    39.421281    35.613898    26.796474 
  100000    234.14755   -446.88496       229892    -22568.24    1664.6092   -24232.849   -1244.0729    483.54872    39.422735    35.611929     26.80073 
  100200    231.56737   -291.91872       229892   -22649.005    1646.2661   -24295.271   -641.25424    482.90159    39.422957    35.608948    26.786988 
  100400    237.56349   -288.41957       229892   -22564.267     1688.894   -24253.161   -566.18849    484.63217    39.422942    35.606974    26.774244 
  100600    237.81487   -353.30097       229892   -22573.118    1690.6811   -24263.799   -842.35282    485.34855    39.422412    35.605111    26.796413 
  100800    227.56771   -342.24627       229892     -22606.9    1617.8316   -24224.731   -823.80695    486.52661     39.42134     35.60494    26.800462 
[...]
 3975800    226.45147   -185.10752       229892   -24675.653     1609.896   -26285.549    -185.3045    6128.1475    38.255781    36.035062    26.173562 
 3976000    223.45088   -149.78214       229892   -24730.378    1588.5641   -26318.942   -76.423115    6125.5487    38.255914    36.036472    26.170056 
 3976200    221.49081   -340.54296       229892   -24733.027    1574.6295   -26307.656   -817.20729    6126.4111    38.256171    36.037603    26.179404 
 3976400    220.74466    -259.7784       229892   -24763.235     1569.325    -26332.56   -481.69192    6126.0488    38.255336    36.038639    26.190031 
 3976600    216.57096   -310.04248       229892   -24747.355    1539.6532   -26287.008   -626.74494    6127.0647    38.255505    36.040006    26.185072 
 3976800    224.45479   -321.11968       229892   -24671.527    1595.7012   -26267.228   -683.42298    6126.2941    38.255285    36.040886    26.190279 
 3977000    220.75733   -260.51419       229892   -24789.642    1569.4151   -26359.057   -490.20052    6127.2714    38.255311    36.043538    26.177595 
 3977200    224.10156   -282.21187       229892   -24697.041    1593.1899   -26290.231   -545.36894    6125.8966    38.254693    36.044329     26.18049 
 3977400    225.66964   -194.22154       229892   -24702.922    1604.3378    -26307.26   -188.93397    6125.1646    38.254351    36.043432    26.174223 
 3977600    219.02084   -158.85001       229892   -24728.587      1557.07   -26285.657   -22.321633    6127.0324    38.254137    36.045569    26.173158 
 3977800    227.39801     -282.525       229892   -24710.443    1616.6252   -26327.068      -579.59    6126.8348    38.253949    36.047322    26.167071 
 3978000    222.32608   -218.01489       229892   -24752.431    1580.5677   -26332.998   -294.84457    6125.9846    38.253272    36.049055    26.172987 
 3978200    231.97482   -389.41787       229892   -24702.855    1649.1628   -26352.018   -938.99417     6127.876    38.253262    36.049982    26.185036 
 3978400    219.62011   -238.76453       229892   -24743.295    1561.3303   -26304.626   -400.19276    6127.3549    38.252024    36.050439    26.176658 
 3978600    221.23472   -325.60981       229892   -24734.735     1572.809   -26307.544   -732.00511     6127.536    38.252202    36.051876    26.178584 
 3978800    228.84319   -362.37453       229892   -24691.636    1626.8993   -26318.535   -886.61647    6127.1581    38.252797    36.053463    26.181345 
 3979000    227.70915   -185.38288       229892   -24721.408    1618.8372   -26340.246   -120.58606    6126.3658      38.2532    36.055223    26.184425 
 3979200    223.69122   -155.73148       229892   -24752.073    1590.2728   -26342.346   -77.642125    6125.4959    38.253853    36.055251    26.173537 
 3979400    222.88625   -262.15093       229892   -24712.943    1584.5501   -26297.493   -485.09139    6126.8274    38.253678    36.056237    26.177582 
 3979600    222.32699   -222.90042       229892   -24713.291    1580.5741   -26293.865   -298.17765    6126.3371    38.254302    36.056442      26.1712 
 3979800    227.25561   -358.86238       229892   -24712.793    1615.6128   -26328.406   -865.03639     6127.312    38.254129     36.05488    26.175963 
 3980000    222.63566   -168.76791       229892   -24716.862    1582.7686    -26299.63   -105.20855    6126.2187    38.254042    36.056511    26.182673 
 3980200    230.50226   -237.49309       229892   -24696.796    1638.6941    -26335.49   -346.75293    6128.3788    38.254277    36.057691    26.173136 
 3980400    221.58015   -349.08663       229892   -24709.536    1575.2647   -26284.801    -809.8164    6126.9644     38.25447     36.05886    26.181329 
 3980600    227.45076    -351.8416       229892   -24662.104    1617.0002   -26279.104   -826.58322    6128.9818     38.25481    36.058213    26.174341 
 3980800     225.2391   -185.50472       229892   -24665.045     1601.277   -26266.322   -192.45731    6127.1374    38.254239    36.058255    26.185344 
 3981000    224.28575   -281.46487       229892   -24684.216    1594.4994   -26278.715   -555.80492    6126.6184    38.254843    36.058148    26.180095 
 3981200    229.18129   -225.69781       229892   -24679.317    1629.3029    -26308.62   -338.25675    6128.8893    38.255124    36.060582    26.177076 
 3981400    223.49516   -287.72694       229892   -24685.433    1588.8789   -26274.312   -586.30777    6127.8093    38.254784    36.062242    26.171466 
 3981600    220.99106   -359.80994       229892   -24738.753    1571.0767    -26309.83   -856.29989    6128.3713     38.25559    36.064229    26.166599 
 3981800     221.7546   -344.94385       229892   -24711.204    1576.5049   -26287.709   -813.08002    6128.0083    38.255821    36.065647    26.169076 
 3982000    220.05061   -160.83412       229892   -24748.676    1564.3908   -26313.066   -88.663374    6125.2989    38.256353    36.065996    26.180789 
 3982200    224.03637   -288.46102       229892   -24753.332    1592.7265   -26346.058   -566.99928    6128.8065    38.256239    36.066021    26.181112 
 3982400    230.45089   -239.40825       229892     -24692.4    1638.3289   -26330.729   -384.95478    6126.9211    38.256196    36.066275    26.178665 
 3982600    223.51001   -189.32889       229892    -24719.97    1588.9845   -26308.954   -152.47845    6126.7207    38.256828    36.067856    26.170888 
 3982800    226.31645   -229.45436       229892   -24665.294    1608.9362    -26274.23   -370.91537    6127.9163    38.257476     36.06889    26.157663 
 3983000    224.66589   -312.04077       229892   -24652.037    1597.2019   -26249.239    -660.9666    6127.3718    38.258471    36.069867     26.16946 
 3983200    231.80201   -136.59168       229892   -24679.867    1647.9343   -26327.801   -8.6515693    6126.4861    38.258957    36.069625     26.17324 
 3983400    224.75105   -310.27762       229892   -24641.952    1597.8073    -26239.76   -686.12539    6127.4227    38.259118     36.07083    26.162001 
 3983600    228.17997   -185.76923       229892   -24698.683    1622.1843   -26320.868   -190.04784    6127.6017    38.259526    36.070416    26.169063 
 3983800    232.23364   -282.10814       229892   -24683.646    1651.0028   -26334.649   -541.66164    6125.9636    38.260009    36.070846    26.161829 
 3984000    222.47091   -287.20317       229892   -24712.138    1581.5973   -26293.735   -535.04096     6126.298    38.260951    36.070556    26.175301 
 3984200    227.06009   -158.14633       229892   -24696.651    1614.2228   -26310.874   -101.74222     6127.287      38.2615    36.069788    26.172951 
 3984400    225.18412   -301.87113       229892   -24723.567    1600.8862   -26324.453   -626.72657     6125.585    38.263169    36.069578    26.172745 
 3984600    224.52891   -266.60887       229892   -24721.661    1596.2281   -26317.889   -508.69887    6125.9824    38.263661    36.070013    26.176755 
 3984800    226.06449   -270.19321       229892   -24688.641    1607.1449   -26295.786     -527.199    6126.1173    38.262837    36.069578    26.175283 
 3985000    230.63951   -242.31846       229892   -24723.957    1639.6698   -26363.627   -426.33223    6126.2586    38.262231    36.070459    26.178506 
 3985200    223.07337   -252.48162       229892   -24692.356    1585.8803   -26278.237     -429.529    6125.4994    38.260059    36.070729    26.162787 
 3985400    217.84694   -195.72881       229892   -24701.083    1548.7244   -26249.807   -226.94315    6125.9889     38.25871    36.070415    26.163927 
 3985600    229.92579   -385.42034       229892   -24665.661    1634.5958   -26300.257   -943.19076    6126.0435    38.259375    36.071531    26.160913 
 3985800    228.07433    -170.6409       229892   -24696.058    1621.4333   -26317.491   -84.485417    6125.2255    38.258657    36.070789    26.168524 
 3986000    230.03082   -158.29902       229892   -24602.702    1635.3425   -26238.045   -62.269834    6125.7325    38.259249    36.072003    26.171711 
 3986200    234.23999   -172.21843       229892   -24628.341    1665.2664   -26293.607   -136.93813    6125.3798    38.259007    36.073588    26.159857 
 3986400    218.05593   -300.71044       229892   -24745.166    1550.2102   -26295.377   -581.40249    6124.6304    38.258918    36.073636    26.170279 
 3986600    222.29403   -205.09015       229892   -24714.167    1580.3398   -26294.507   -261.90145    6125.2269    38.258879    36.074197    26.156101 
 3986800    226.52702   -290.15317       229892    -24703.78    1610.4331   -26314.213   -595.32876    6127.1254    38.258661    36.075317    26.142154 
 3987000     223.2785   -279.92922       229892   -24675.779    1587.3387   -26263.118   -539.01722    6127.1979    38.257519    36.074697    26.153291 
 3987200    214.86748    -162.3434       229892   -24787.224    1527.5427   -26314.766    -117.0004     6124.973    38.258682    36.077003    26.161773 
 3987400    219.89349   -131.38199       229892   -24716.139    1563.2738   -26279.413   -12.553449    6125.9128    38.258766    36.078375    26.171407 
 3987600    225.70494   -269.40659       229892   -24667.717    1604.5888   -26272.306   -510.58556    6126.5598    38.259303    36.079118    26.152899 
 3987800    223.15479   -291.34967       229892   -24705.909    1586.4592   -26292.368   -624.89858    6127.2616    38.259939    36.079728    26.149553 
 3988000     227.5911    -259.2154       229892   -24680.504     1617.998   -26298.502   -498.40778    6126.3497     38.26049    36.080741     26.15542 
 3988200    226.71425   -235.04806       229892   -24696.032    1611.7642   -26307.797    -352.1184    6125.5273    38.261555    36.082304    26.159741 
 3988400    220.19992   -198.70206       229892    -24691.04    1565.4523   -26256.493   -194.57356    6125.4029    38.263266    36.082972    26.152456 
 3988600    223.45085    -251.8062       229892   -24726.398    1588.5639   -26314.962    -444.2617    6126.1299    38.263845    36.083184    26.155271 
 3988800    221.94981   -313.75861       229892   -24717.294    1577.8927   -26295.186   -696.19634    6127.1523    38.263868    36.084376    26.162655 
 3989000    229.14371   -220.76242       229892   -24636.367    1629.0358   -26265.403   -303.49894    6123.9012    38.265024    36.085982    26.150642 
 3989200    224.19214   -263.10761       229892   -24700.897    1593.8339   -26294.731   -493.97193    6126.1486    38.264978    36.087424    26.155344 
 3989400    224.07193   -229.63619       229892   -24717.739    1592.9793   -26310.718   -338.68799    6125.4672    38.264539    36.087986    26.160027 
 3989600    228.10057   -243.19869       229892   -24633.234    1621.6199   -26254.854   -379.18809    6125.6869    38.265006     36.08881     26.16478 
 3989800    231.04183   -270.25817       229892   -24662.318      1642.53   -26304.848   -544.49157    6126.6592    38.264998     36.08877    26.165694 
 3990000    225.96457   -210.77261       229892   -24696.547    1606.4346   -26302.981   -295.12731    6126.4173    38.264912    36.090051    26.153908 
 3990200    221.69239   -195.32364       229892   -24726.835    1576.0626   -26302.898   -176.69141    6125.8449    38.265745    36.090755    26.159789 
 3990400    229.41745   -253.99643       229892   -24678.336    1630.9819   -26309.318   -416.34448    6127.3224    38.264649    36.091825    26.152824 
 3990600     226.4865    -171.1408       229892   -24716.691    1610.1451   -26326.836   -127.95711    6125.3549    38.264761    36.093555    26.157768 
 3990800    223.64573   -219.67868       229892   -24659.254    1589.9494   -26249.203   -304.30144    6125.7651    38.265808    36.095275    26.153477 
 3991000    224.23992   -231.25167       229892   -24676.062    1594.1736   -26270.235   -328.81483    6127.0256     38.26656    36.095149    26.155006 
 3991200    227.71365   -237.25637       229892    -24653.68    1618.8692   -26272.549    -366.0855    6125.6541    38.267624     36.09658    26.160221 
 3991400    229.99976   -308.26869       229892   -24639.237    1635.1217   -26274.359   -654.22308    6128.8761    38.268823    36.096324    26.160516 
 3991600    222.67924   -276.07345       229892   -24692.467    1583.0783   -26275.545   -545.06324    6127.4823    38.269812    36.096472    26.163119 
 3991800    222.02374   -281.35347       229892   -24763.476    1578.4183   -26341.894   -542.00716    6126.8519    38.269273    36.097179     26.15533 
 3992000    228.06184   -201.01765       229892   -24696.417    1621.3445   -26317.761   -232.44925    6127.1083    38.270091     36.09816    26.161277 
 3992200    223.83369   -306.95613       229892    -24698.61    1591.2856   -26289.896   -619.65499    6126.7644    38.270652    36.100118    26.155678 
 3992400    222.74855   -239.98849       229892   -24700.963    1583.5711   -26284.534   -384.32662    6126.5926    38.270502    36.100422    26.155364 
 3992600    225.85835   -251.14032       229892   -24695.643    1605.6794   -26301.322   -443.88208    6126.7898     38.27182    36.101065    26.154982 
 3992800    224.96388   -268.57825       229892   -24702.087    1599.3204   -26301.408   -539.67096    6127.0078    38.271421    36.102435     26.14946 
 3993000    221.34768   -245.81845       229892   -24802.431     1573.612   -26376.043   -406.31807    6126.3661    38.270563    36.104439    26.158405 
 3993200    227.15867    -297.9412       229892   -24683.949    1614.9237   -26298.873   -613.10836    6127.0898    38.271555    36.106073     26.16197 
 3993400    231.11723   -349.58195       229892   -24654.495     1643.066   -26297.561   -817.90367    6127.3537    38.272272    36.106957     26.16695 
 3993600    225.91461   -153.61807       229892   -24681.565    1606.0793   -26287.645   -50.820398    6126.5216    38.273138    36.107134    26.157507 
 3993800    227.93435   -359.29929       229892   -24677.596    1620.4382   -26298.034   -837.10069    6128.6975    38.273186    36.108521    26.159273 
 3994000    226.03459   -229.54316       229892   -24693.369    1606.9324   -26300.302    -355.6832    6126.6148    38.273541    36.110449    26.157801 
 3994200    221.77449   -200.90185       229892   -24739.474    1576.6463    -26316.12   -196.81172    6128.0634    38.273019    36.111348    26.159537 
 3994400    220.82705    -263.9074       229892   -24694.135    1569.9107   -26264.046   -509.12391    6127.9981    38.271644    36.112218    26.164042 
 3994600    220.57302   -220.60874       229892   -24745.263    1568.1048   -26313.368    -359.1525    6125.3699    38.270826    36.112981    26.152029 
 3994800    227.37475   -249.07709       229892   -24693.322    1616.4598   -26309.782   -435.89462    6127.3325    38.269768    36.114981    26.153921 
 3995000    230.03534   -147.48852       229892   -24646.252    1635.3746   -26281.627   -42.179663    6125.0134     38.27008    36.114834    26.163274 
 3995200    225.47942   -218.98811       229892    -24754.15    1602.9855   -26357.135   -318.17536     6127.036     38.27098    36.116047    26.171679 
 3995400    228.56375   -334.89563       229892   -24676.961    1624.9127   -26301.873   -781.95814    6127.2178    38.271674    36.116476    26.180569 
 3995600    235.95241   -289.27284       229892   -24640.945    1677.4404   -26318.386   -593.06926    6127.1073    38.272194    36.116137    26.186748 
 3995800    233.82558   -141.20093       229892   -24638.312    1662.3203   -26300.633   -18.704519    6127.3509    38.272199    36.116191     26.19439 
 3996000     228.1238   -200.31386       229892   -24567.208     1621.785   -26188.993   -274.94539    6125.1131     38.27316    36.117013    26.184289 
 3996200    226.63809   -463.05157       229892   -24633.177    1611.2227   -26244.399   -1275.9331    6127.8435    38.274327    36.117155    26.170793 
 3996400    220.98944   -99.623838       229892   -24725.815    1571.0652    -26296.88    143.74044    6125.3486    38.274557    36.116893    26.183817 
 3996600    221.51684   -185.24435       229892   -24682.978    1574.8146   -26257.793   -186.19289    6126.5615    38.275873     36.11714    26.189395 
 3996800    220.91416   -337.41502       229892   -24741.237      1570.53   -26311.767   -786.02489    6126.0666    38.276018    36.117876    26.180823 
 3997000    229.73101   -220.49021       229892   -24604.845     1633.211   -26238.056    -298.0572    6125.1598    38.276436    36.119409    26.177352 
 3997200    228.62758     -391.587       229892   -24676.842    1625.3665   -26302.209   -1011.7712    6126.1528     38.27621    36.120572    26.181341 
 3997400    222.83112   -232.82833       229892   -24738.427    1584.1581   -26322.585   -391.59858      6126.58    38.276177      36.1225    26.171503 
 3997600    224.85979    -281.2911       229892   -24686.218    1598.5804   -26284.799   -573.23779    6125.6838    38.275969    36.124035    26.177995 
 3997800    222.51057   -229.18106       229892   -24806.441    1581.8793    -26388.32   -335.17666      6126.65    38.276569    36.125211    26.180012 
 3998000    223.61948   -170.76713       229892   -24718.111    1589.7628   -26307.874   -132.02076    6123.9126    38.275843    36.126624      26.1808 
 3998200    224.34662   -272.15527       229892   -24730.134    1594.9322   -26325.067   -487.10148    6125.5437    38.276019    36.127701    26.178445 
 3998400    233.07346   -243.06304       229892   -24626.096    1656.9733    -26283.07   -429.33046    6125.4885    38.275683    36.128871    26.178747 
 3998600    222.85554   -190.65495       229892   -24725.006    1584.3317   -26309.337   -213.73966    6126.5306     38.27662     36.13065    26.184308 
 3998800     226.0324   -365.38415       229892   -24678.306    1606.9167   -26285.223   -841.36644    6127.3677    38.277714    36.132324    26.202126 
 3999000    229.10452   -156.25532       229892   -24642.365    1628.7572   -26271.123   -104.01189    6124.4075    38.278719    36.132114    26.215442 
 3999200    220.65604   -274.51667       229892   -24710.108    1568.6949   -26278.803   -499.73911    6126.2952    38.279111    36.132522    26.204898 
 3999400    216.24715   -364.22224       229892   -24737.761    1537.3512   -26275.112   -903.40495     6126.675    38.278465    36.133723    26.207081 
 3999600    227.77327   -198.15809       229892   -24737.441     1619.293   -26356.735   -222.78586    6126.1513    38.278847    36.134848    26.204444 
 3999800    223.50449   -321.43928       229892   -24653.085    1588.9453    -26242.03     -733.404    6127.6331    38.278836    36.136132    26.209163 
 4000000    227.95237   -253.55955       229892   -24619.066    1620.5663   -26239.632   -449.62984    6126.2453    38.280241    36.136603    26.210825 
Loop time of 7056.2 on 120 procs for 4000000 steps with 9010 atoms

Performance: 489.782 ns/day, 0.049 hours/ns, 566.877 timesteps/s
98.1% CPU use with 120 MPI tasks x no OpenMP threads

MPI task timing breakdown:
Section |  min time  |  avg time  |  max time  |%varavg| %total
---------------------------------------------------------------
Pair    | 0.19448    | 1696.5     | 5690.9     |4617.6 | 24.04
Neigh   | 0.33016    | 104.72     | 398.26     |1265.4 |  1.48
Comm    | 29.837     | 2872.7     | 6228.6     |3853.3 | 40.71
Output  | 79.785     | 79.862     | 81.279     |   1.5 |  1.13
Modify  | 187.54     | 2258.9     | 6900.6     |5372.8 | 32.01
Other   |            | 43.41      |            |       |  0.62

Nlocal:    75.0833 ave 232 max 0 min
Histogram: 49 14 21 6 0 0 0 0 4 26
Nghost:    604.908 ave 994 max 0 min
Histogram: 11 3 6 3 6 15 24 23 17 12
Neighs:    0 ave 0 max 0 min
Histogram: 120 0 0 0 0 0 0 0 0 0
FullNghs:  7467.87 ave 29021 max 0 min
Histogram: 72 18 0 0 0 0 0 2 13 15

Total # of neighbors = 896144
Ave neighs/atom = 99.461
Neighbor list builds = 432568
Dangerous builds = 0
write_data 		${DIR}/data.${NAME}_run
write_data 		run_18/data.${NAME}_run
write_data 		run_18/data.ibeam_cooling_18_run
Total wall time: 1:57:55
