
# Set production fixes - Nose/Hoover
#
fix                 4 water temp/csvr ${START_TEMP} ${END_TEMP} 500.0 928347
fix                 4 water temp/csvr 235 ${END_TEMP} 500.0 928347
fix                 4 water temp/csvr 235 225 500.0 928347


## divide "droplet" into core and surface
#region		core_reg cylinder z 135 135 44.6 20 INF units box
#region		surface_reg cylinder z 135 135 44.6 20 INF units box side out
#group		core dynamic all region core_reg
#group		surface dynamic all region surface_reg

## compute pressure core
#compute        peratom_core core stress/atom NULL
#compute        p_core core reduce sum c_peratom_core[1] c_peratom_core[2] c_peratom_core[3]
#variable       press_core equal -(c_p_core[1]+c_p_core[2]+c_p_core[3])/(3*1249982.5)


## compute pressure surface
#compute        peratom_surf surface stress/atom NULL
#compute        p_surf surface reduce sum c_peratom_surf[1] c_peratom_surf[2] #c_peratom_surf[3]
#variable       press_surf equal -(c_p_surf[1]+c_p_surf[2]+c_p_surf[3])/(3*42395)

## compute total pressure of drop
compute        peratom water stress/atom NULL
compute        p water reduce sum c_peratom[1] c_peratom[2] c_peratom[3]
variable       press equal -(c_p[1]+c_p[2]+c_p[3])/(3*50402)


# compute order parameter
compute        3 all orientorder/atom nnn NULL cutoff 3.5

# compute center of mass of bridge
compute 	4 water com

# Run simulation
thermo_style        custom step c_2 press vol etotal ke pe v_press c_1[4] c_4[*]
thermo              200
dump		     1 water custom 400 ${DIR}/prod.${NAME}.dump id type x y z vx vy vz c_3[*] c_peratom[*]
dump		     1 water custom 400 run_14/prod.${NAME}.dump id type x y z vx vy vz c_3[*] c_peratom[*]
dump		     1 water custom 400 run_14/prod.ibeam_cooling_14.dump id type x y z vx vy vz c_3[*] c_peratom[*]
run                 ${STEPS}
run                 4000000
Neighbor list info ...
  update every 1 steps, delay 0 steps, check yes
  max neighbors/atom: 2000, page size: 100000
  master list distance cutoff = 6.67472
  ghost atom cutoff = 6.67472
  binsize = 3.33736, bins = 24 25 11
  2 neighbor lists, perpetual/occasional/extra = 1 1 0
  (1) pair sw, perpetual
      attributes: full, newton on
      pair build: full/bin/atomonly
      stencil: full/bin/3d
      bin: standard
  (2) compute orientorder/atom, occasional, copy from (1)
      attributes: full, newton on
      pair build: copy
      stencil: none
      bin: none
Per MPI rank memory allocation (min/avg/max) = 6.149 | 6.791 | 7.275 Mbytes
Step c_2 Press Volume TotEng KinEng PotEng v_press c_1[4] c_4[1] c_4[2] c_4[3] 
       0    235.72949    -370.9618    216156.16   -20259.829    1493.1628   -21752.992   -897.61488    30.757959    39.420819    39.226628    23.744306 
     200    233.18563   -410.37007    216156.16   -20276.794    1477.0494   -21753.843   -1090.1798    31.529838    39.418367    39.228225    23.758656 
     400    233.25322   -254.15301    216156.16    -20244.78    1477.4775   -21722.257   -429.54166    32.750448    39.417784    39.228501    23.777607 
     600     235.6663   -378.49109    216156.16   -20146.377    1492.7625    -21639.14   -972.80495    34.619099    39.418415    39.229532    23.788607 
     800     234.6503   -344.61576    216156.16   -20133.374    1486.3269   -21619.701   -822.45414     35.35663    39.419425    39.230998    23.771165 
    1000     228.5381   -367.46572    216156.16   -20214.073    1447.6109   -21661.684   -897.79773    36.874164    39.421841     39.23193    23.756086 
    1200    235.03194   -348.18574    216156.16    -20208.25    1488.7443   -21696.995   -821.09804    37.380058    39.420629    39.230847    23.775608 
    1400    238.30561   -356.87262    216156.16   -20198.485    1509.4805   -21707.966   -850.22987    38.517143    39.419362    39.229546    23.782307 
    1600    239.12227   -487.79434    216156.16   -20209.465    1514.6534   -21724.119   -1379.2816    40.609535     39.41996    39.230084    23.784831 
    1800    228.44709   -302.58997    216156.16   -20184.482    1447.0344   -21631.517   -621.53462    42.382511    39.419605    39.231424    23.778659 
    2000    238.32975   -353.93261    216156.16   -20080.404    1509.6334   -21590.038   -851.11739    43.636011    39.420945     39.23167    23.772519 
    2200    233.16841   -320.77008    216156.16   -20149.515    1476.9403   -21626.455   -736.70384    44.864141    39.421471    39.229506    23.755241 
    2400    235.32361   -421.95022    216156.16   -20124.208    1490.5919   -21614.799   -1085.0213     46.51549    39.420958    39.228843     23.74385 
    2600    228.65703   -415.56241    216156.16   -20184.447    1448.3643   -21632.811   -1115.3622     47.16503    39.421447    39.229267    23.757551 
    2800     243.6597    -416.1341    216156.16   -20092.785    1543.3945   -21636.179   -1107.0444    48.118529    39.422254    39.231694    23.775495 
    3000    239.58234   -448.28468    216156.16   -20107.908    1517.5676   -21625.476   -1282.2673    49.815524    39.424574    39.232828    23.791087 
    3200    232.02895   -357.99438    216156.16    -20196.67    1469.7227   -21666.393   -835.58496     50.92093    39.423047    39.231716    23.782246 
    3400    231.67556   -410.81956    216156.16   -20170.586    1467.4843    -21638.07   -1089.2732    52.731502    39.421963    39.232524    23.757583 
    3600    236.92899   -349.75582    216156.16   -20168.539    1500.7607     -21669.3   -821.51416    53.921935    39.419634    39.234364    23.724371 
    3800    232.96654   -257.14202    216156.16   -20133.504    1475.6616   -21609.166   -462.42091    55.629751    39.419502    39.233881    23.726969 
    4000    228.33621    -294.8372    216156.16   -20186.648    1446.3321    -21632.98   -541.05418    56.092285    39.418808    39.233986    23.732869 
    4200    236.24107   -387.98941    216156.16   -20136.204    1496.4032   -21632.608   -986.16144    57.235615    39.418431    39.233001    23.732744 
    4400    233.96011   -304.73291    216156.16   -20161.461    1481.9551   -21643.417   -656.61851    58.517605    39.415552    39.232918    23.741614 
    4600    235.11286   -459.82032    216156.16   -20263.323    1489.2569    -21752.58   -1275.2993    59.652564    39.418464    39.234346    23.751259 
    4800    240.09465   -562.97048    216156.16   -20149.579    1520.8126   -21670.391   -1737.9096    60.909177    39.417686    39.235765    23.766286 
    5000    236.13854   -365.14751    216156.16   -20224.991    1495.7538   -21720.745   -864.05582    61.862732    39.416884    39.235647    23.790186 
    5200    233.43135   -333.87655    216156.16   -20225.044    1478.6058    -21703.65   -725.63576    62.555147     39.41582    39.233877    23.779984 
    5400    230.76767   -456.99901    216156.16   -20222.845    1461.7335   -21684.578   -1328.7882    64.170701     39.41323    39.235315    23.779357 
    5600    234.52619   -453.00908    216156.16   -20249.657    1485.5408   -21735.198   -1286.3255      65.2165     39.41439    39.231486    23.785274 
    5800    240.71855   -292.87654    216156.16   -20173.304    1524.7646   -21698.068   -600.31653    65.603314    39.414218    39.225644    23.807231 
    6000    237.29459   -234.51394    216156.16   -20240.353    1503.0765    -21743.43   -338.16469    67.404897    39.413665    39.224475     23.79496 
    6200    234.13102   -471.26574    216156.16   -20228.542    1483.0377   -21711.579   -1299.0588    68.669527    39.414892     39.22693    23.813932 
    6400    229.18017   -515.44838    216156.16   -20208.967    1451.6779   -21660.645   -1481.3099    68.942483    39.412787    39.228522    23.822373 
    6600    231.99388   -513.27582    216156.16   -20226.563    1469.5006   -21696.064   -1559.3387    69.968376    39.413176    39.230956    23.822943 
    6800    234.11096   -177.51514    216156.16   -20207.421    1482.9106   -21690.332   -97.570153    70.511603    39.413232    39.230122     23.82477 
    7000    236.58514   -539.90589    216156.16   -20166.046    1498.5827   -21664.628   -1647.1636    71.775096    39.412189    39.228741    23.826673 
    7200    229.37012   -319.84602    216156.16    -20266.18    1452.8811   -21719.062   -645.57376    71.290535    39.411687    39.228453    23.833117 
    7400    238.38111   -292.84915    216156.16   -20232.371    1509.9587   -21742.329   -545.71291    71.945804    39.411402    39.231006    23.839288 
    7600    244.02826   -333.41114    216156.16   -20160.528     1545.729   -21706.257   -737.67454    72.181492    39.408386    39.231738    23.805724 
    7800     231.0839    -367.3101    216156.16   -20283.314    1463.7366   -21747.051   -905.36653    72.428672    39.407506    39.231684    23.802279 
    8000    241.68502   -312.12669    216156.16   -20175.677    1530.8864   -21706.563    -651.4609    72.380308    39.407458     39.23358    23.809907 
    8200     236.7307   -329.47716    216156.16   -20171.957    1499.5047   -21671.461   -728.75315    73.411315     39.40885    39.233753    23.820966 
    8400    249.87968   -225.22054    216156.16   -20113.175    1582.7932   -21695.968   -322.60824    74.514555    39.408491    39.234002    23.818352 
    8600    234.31407    -308.7571    216156.16   -20163.124    1484.1972   -21647.321   -620.21497    75.657535    39.405293    39.233188    23.824575 
    8800    230.46336   -252.73421    216156.16   -20187.128     1459.806   -21646.934   -405.63887    77.045686    39.404225    39.233397    23.831432 
    9000    237.87992   -387.54558    216156.16   -20147.499    1506.7841   -21654.283   -975.59154    78.048792     39.40273     39.23227    23.854775 
    9200    236.94408   -463.77978    216156.16   -20113.413    1500.8562   -21614.269   -1309.9348    79.136988    39.401882    39.230352    23.859013 
    9400    236.33209   -325.24144    216156.16   -20182.615    1496.9798   -21679.595   -728.23587    79.325603    39.403057    39.226127    23.874813 
    9600    238.23269   -298.70525    216156.16   -20195.815    1509.0186   -21704.833   -640.18782    80.234385    39.404667    39.224564    23.894729 
    9800    237.38767   -474.52659    216156.16   -20122.279     1503.666   -21625.945   -1362.9461    81.748526    39.404969    39.223422    23.903645 
   10000    235.66297   -418.83248    216156.16   -20173.078    1492.7414    -21665.82   -1113.7235    82.680583    39.404224    39.221843    23.896826 
   10200    240.35214   -413.93996    216156.16   -20092.882    1522.4436   -21615.325   -1098.8478    82.903553    39.402493    39.223297    23.883939 
   10400    237.63994   -312.07736    216156.16   -20126.055     1505.264   -21631.319    -707.2308    83.722666    39.402127    39.222469    23.850284 
   10600    230.48473   -386.68388    216156.16   -20228.935    1459.9413   -21688.877   -1042.1552    83.911953    39.402792    39.223018    23.844512 
   10800    227.78129   -299.31827    216156.16    -20255.91    1442.8171   -21698.727   -582.33155     84.42834    39.401212    39.223609    23.840092 
   11000    233.26164   -249.25543    216156.16   -20214.123    1477.5308   -21691.654     -436.915    85.230675    39.401849    39.224418    23.836183 
   11200    229.47388   -361.19416    216156.16   -20190.512    1453.5384   -21644.051   -865.15306    86.727564    39.403231    39.225822    23.859703 
   11400     234.9534   -260.42879    216156.16   -20201.278    1488.2468   -21689.524   -417.55731    88.059724    39.402907     39.22814    23.858922 
   11600    235.78896    -321.3953    216156.16   -20128.317    1493.5394   -21621.857   -733.04321    89.080275    39.402352    39.226401     23.88079 
   11800    239.20125   -448.17378    216156.16   -20136.452    1515.1537   -21651.606   -1284.3849    89.664654    39.402602    39.226485    23.876579 
   12000     237.6204   -304.35475    216156.16    -20146.63    1505.1402   -21651.771   -611.11924    90.290773    39.402692     39.22735    23.883729 
   12200    237.41872   -439.10783    216156.16   -20137.112    1503.8627   -21640.975   -1247.4609    90.748142    39.401825    39.228078    23.881229 
   12400    235.46053   -485.05083    216156.16   -20153.718    1491.4591   -21645.177   -1368.3598    92.234201    39.400832    39.227183    23.876624 
   12600    234.76182   -271.59416    216156.16   -20070.098    1487.0334   -21557.131   -486.98628    93.302062    39.402543    39.228733    23.877006 
   12800    232.52357   -370.28915    216156.16   -20101.957    1472.8558   -21574.813   -916.69874    93.724381    39.400555    39.228222     23.84718 
   13000    238.11057   -253.21751    216156.16    -20131.14     1508.245   -21639.385   -432.93908    95.434385    39.400736    39.229419    23.837662 
   13200    234.43809   -364.44259    216156.16   -20151.405    1484.9828   -21636.388   -882.09302    97.699367    39.399232    39.228725    23.822588 
   13400    223.73485   -501.45354    216156.16    -20226.82     1417.186   -21644.006   -1479.0039    98.247607     39.39803    39.225197    23.841098 
   13600    233.60063   -392.30501    216156.16   -20165.471    1479.6781   -21645.149   -1008.4207    98.891243     39.39621    39.223388    23.859863 
   13800    235.79955   -359.12586    216156.16   -20123.566    1493.6065   -21617.173   -892.31682    99.237563    39.394456    39.222895    23.840349 
   14000    238.03896   -295.03451    216156.16   -20115.813    1507.7915   -21623.604   -611.82662    100.73131    39.394457    39.223854    23.841293 
   14200    240.08074    -352.2374    216156.16   -20173.745    1520.7246   -21694.469   -839.66757    102.09463    39.394208     39.22494    23.827828 
   14400    232.57347   -306.13387    216156.16   -20250.293    1473.1718   -21723.465   -627.25532     103.1034    39.393608    39.222494    23.816011 
   14600    232.89119   -275.64718    216156.16   -20239.796    1475.1843   -21714.981   -515.28479    103.73474     39.39463    39.219954    23.811283 
   14800    232.76156   -364.58129    216156.16   -20164.054    1474.3632   -21638.417    -904.8212    104.37424    39.396099    39.219787    23.839276 
   15000    233.17784   -211.12956    216156.16   -20207.171    1477.0001   -21684.171    -214.0243    104.51045    39.396814     39.21845     23.84474 
   15200    237.72093   -331.75202    216156.16   -20168.279     1505.777   -21674.056   -730.03606    104.56214    39.396052     39.21916    23.845952 
   15400    233.84669    -458.9843    216156.16    -20212.14    1481.2367   -21693.376   -1282.0811     105.4437    39.394866    39.220477    23.857936 
   15600     242.2965    -462.1837    216156.16   -20090.159    1534.7597   -21624.919    -1344.496    107.22324    39.393773    39.220242    23.836227 
   15800    240.52701   -349.10851    216156.16   -20142.305    1523.5513   -21665.856   -791.82427    107.94923     39.39114    39.220404    23.820701 
   16000    234.80049   -383.76525    216156.16   -20149.797    1487.2783   -21637.075    -946.0992    109.18754    39.388283    39.222591    23.799881 
   16200    231.85188   -161.87103    216156.16   -20117.577    1468.6011   -21586.179    6.5839037     110.2089    39.388617    39.223515    23.807688 
   16400     232.6788   -193.62926    216156.16   -20163.533     1473.839   -21637.372   -169.16059     111.3667    39.389827    39.226151    23.784336 
   16600    238.94511   -498.35688    216156.16   -20087.721    1513.5312   -21601.252   -1453.2756     111.9294    39.390521    39.225754     23.76709 
   16800    233.34688   -281.69592    216156.16   -20147.522    1478.0708   -21625.593    -532.9564    113.50174    39.391424    39.227404     23.77047 
   17000    233.25493   -459.71265    216156.16   -20186.093    1477.4884   -21663.582   -1259.6386    115.09092    39.389971    39.229396    23.773889 
   17200    235.34959   -425.96296    216156.16   -20199.711    1490.7564   -21690.467   -1173.0916    116.99107    39.388394    39.230007    23.784738 
   17400    229.55652    -369.7467    216156.16   -20285.005    1454.0618   -21739.067   -907.45605    117.68147    39.389737    39.228832    23.791229 
   17600    231.24276   -627.19623    216156.16   -20267.456    1464.7428   -21732.199   -2030.5525    118.77602    39.390042    39.227482     23.77143 
   17800    236.11521   -462.55784    216156.16   -20278.773     1495.606   -21774.379   -1294.4412    118.55485    39.388236    39.224003    23.757143 
   18000    233.61176   -364.04728    216156.16   -20209.719    1479.7486   -21689.468   -847.67826    119.42968    39.387475    39.223103    23.762295 
   18200    237.89426   -314.78371    216156.16   -20196.417    1506.8749   -21703.292    -687.7011    120.48775     39.38596    39.223073    23.750359 
   18400    238.27555   -332.66786    216156.16   -20170.415    1509.2901   -21679.705   -727.38528    121.37674    39.382295    39.221904    23.763161 
   18600    233.58302   -326.81134    216156.16   -20143.253    1479.5665    -21622.82   -725.02468    122.53487     39.38109    39.221141    23.773807 
   18800    230.41285   -395.59453    216156.16   -20201.174     1459.486    -21660.66   -995.25445    123.54203    39.380184    39.220103    23.764587 
   19000    235.35829   -343.46918    216156.16   -20139.137    1490.8115   -21629.949   -827.23892    123.08425    39.378294    39.217024    23.773964 
   19200    231.62617   -262.42415    216156.16   -20187.939    1467.1714   -21655.111   -480.41738    123.58584    39.377528    39.215942    23.790914 
   19400    233.77154   -388.42585    216156.16   -20139.453    1480.7607   -21620.213    -952.2332    123.77447    39.379438    39.214466    23.791858 
   19600    238.21487   -455.01212    216156.16   -20161.968    1508.9057   -21670.873    -1241.656    124.63479    39.379954    39.216082    23.799168 
   19800     234.1227   -321.81439    216156.16    -20145.34     1482.985   -21628.325   -752.08462    125.09334    39.381245    39.216421    23.790493 
   20000    237.62462   -372.85251    216156.16    -20162.37    1505.1669   -21667.537   -899.09344    125.62285    39.380577    39.217076    23.811668 
   20200    225.86343   -325.19446    216156.16   -20206.487     1430.669   -21637.156   -667.39612    125.92457    39.379738    39.217902    23.799157 
   20400    235.55415   -483.82012    216156.16   -20134.714    1492.0521   -21626.766   -1412.8079    129.05853    39.378458    39.216263    23.797004 
   20600    234.20316   -276.78203    216156.16   -20216.172    1483.4946   -21699.666   -512.75162    130.08838    39.378472    39.216329    23.798577 
   20800     235.3982   -252.28166    216156.16   -20146.637    1491.0643   -21637.701   -394.23483    131.05458    39.377588     39.21729    23.809152 
   21000     235.8119    -490.6739    216156.16   -20190.612    1493.6848   -21684.297   -1354.7707    132.58922    39.374861    39.217924    23.813519 
   21200    235.01544   -446.51913    216156.16   -20149.875    1488.6398   -21638.515   -1229.1373    132.62221    39.373562    39.219757    23.822231 
   21400    240.77705    -576.1386    216156.16   -20167.363    1525.1351   -21692.498   -1803.5945    133.25141    39.373219    39.218981    23.796293 
   21600    240.95833    -249.5866    216156.16   -20088.961    1526.2834   -21615.244   -401.01638    134.35337    39.375716    39.218223      23.7691 
   21800    235.98038   -353.88414    216156.16    -20210.39     1494.752   -21705.142   -835.46915    136.11521    39.377288    39.218313    23.766562 
   22000    233.98849   -292.05416    216156.16   -20266.792    1482.1349   -21748.927   -544.89704     137.7991    39.375985    39.220198    23.786658 
   22200    231.68184   -294.19283    216156.16   -20289.509    1467.5241   -21757.033   -618.54573    138.14841    39.376429    39.219389    23.800052 
   22400    239.25264   -501.78377    216156.16   -20195.425    1515.4792   -21710.904   -1496.9141    138.73907    39.378592     39.21823    23.812029 
   22600    236.38213    -436.4294    216156.16    -20200.98    1497.2968   -21698.277   -1175.4482    139.18518    39.380572    39.216522    23.819642 
   22800    237.04031    -379.6129    216156.16   -20151.142    1501.4658   -21652.607    -961.8055    141.07734     39.38238    39.216227    23.829273 
   23000    232.47244   -367.70552    216156.16    -20240.29    1472.5319   -21712.822   -927.14312    142.38384    39.383313    39.216033    23.834455 
   23200    238.47449   -461.22757    216156.16   -20160.927    1510.5502   -21671.477   -1270.9407    143.71246    39.382426    39.213238    23.826188 
   23400    232.61689   -426.00035    216156.16   -20209.405    1473.4469   -21682.851   -1159.8521    145.79018    39.382101    39.213126     23.83768 
   23600     238.9059     -494.289    216156.16   -20140.615    1513.2829   -21653.898   -1482.4021    147.52459    39.379377    39.213935    23.828152 
   23800    234.92966   -397.13369    216156.16   -20131.353    1488.0965   -21619.449    -1004.547    148.44831    39.378626    39.215479    23.830075 
   24000    230.92194   -341.56723    216156.16    -20137.23    1462.7107   -21599.941   -824.50946     149.1679    39.376756    39.216588    23.842482 
   24200    234.50847   -427.43195    216156.16   -20145.695    1485.4286   -21631.123   -1146.8453    148.77581    39.374432    39.218606    23.841385 
   24400    231.18992   -408.18765    216156.16     -20195.8    1464.4081   -21660.208   -1088.8265     149.3572    39.375125    39.221138    23.852675 
   24600     230.9421   -479.82375    216156.16   -20254.092    1462.8384   -21716.931   -1463.4447    150.74154    39.374586    39.220307     23.86304 
   24800    231.90973   -391.22557    216156.16   -20266.145    1468.9676   -21735.112   -1048.0372    151.08484    39.372207    39.219426     23.84731 
   25000    237.03499   -465.69074    216156.16   -20277.634    1501.4321   -21779.067   -1316.9795    151.66308    39.373388    39.219092    23.835863 
   25200    228.27173    -424.2394    216156.16   -20342.442    1445.9237   -21788.365   -1181.7044    152.69666    39.374397    39.219663    23.847396 
   25400    237.05147   -549.47709    216156.16   -20231.327    1501.5365   -21732.864   -1674.9223    155.24759    39.372262     39.21964    23.833629 
   25600    242.31402   -430.19554    216156.16   -20099.108    1534.8706   -21633.978   -1209.6815    156.17801    39.369878    39.218783    23.851432 
   25800    242.05155   -407.88384    216156.16   -20111.114    1533.2081   -21644.322   -1062.9216    158.57937    39.371587    39.216657    23.841325 
   26000    234.56894   -324.92464    216156.16   -20157.627    1485.8116   -21643.439   -707.31181    159.51241    39.371014    39.218492    23.877867 
   26200    231.73965   -295.66791    216156.16   -20151.381    1467.8902   -21619.272   -634.79144    160.80725    39.372494    39.219615    23.866764 
   26400    231.64032    -396.4786    216156.16    -20173.97     1467.261   -21641.231   -1062.7227    161.17599    39.374807    39.221438    23.884311 
   26600    240.41459   -316.39128    216156.16   -20100.119    1522.8392   -21622.958   -705.53522    163.54631    39.376885    39.223465    23.878505 
   26800    235.67286   -153.11947    216156.16   -20126.819     1492.804   -21619.623   -19.293416     163.7041    39.376555    39.223908    23.881875 
   27000     248.0482   -352.46067    216156.16   -20089.207    1571.1922   -21660.399    -858.0626    163.28008    39.378411    39.222614    23.885225 
   27200    235.74901   -231.48888    216156.16   -20133.532    1493.2864   -21626.818    -330.2411    164.63406    39.379116    39.224463    23.888707 
   27400    237.25429   -231.01662    216156.16   -20077.594    1502.8212   -21580.415   -308.50914    166.11007    39.380443    39.224115    23.878561 
   27600    226.64101   -526.26723    216156.16   -20203.838    1435.5943   -21639.432   -1594.9897    167.53438    39.379733    39.223116    23.891503 
   27800    244.21191   -399.36397    216156.16   -20108.027    1546.8923   -21654.919   -1045.2573    169.52684    39.377529    39.222143     23.89915 
   28000    225.08856   -357.60727    216156.16   -20200.881    1425.7608   -21626.642   -876.75679    170.23353      39.3773    39.222826    23.906818 
   28200    228.70191   -236.61037    216156.16   -20147.302    1448.6485    -21595.95    -368.5603    169.78337    39.375631    39.221508    23.899008 
   28400    229.52662   -270.91284    216156.16   -20122.156    1453.8724   -21576.029   -528.74396    170.66905    39.373422    39.219908    23.910048 
   28600     237.6891   -311.51405    216156.16   -20167.098    1505.5753   -21672.673   -665.75404    172.69163    39.371128     39.22213    23.938946 
   28800    236.99254   -224.62039    216156.16   -20167.294    1501.1632   -21668.458   -291.90638    173.57442     39.37119    39.225446      23.9545 
   29000    235.83478   -386.29152    216156.16    -20131.59    1493.8297   -21625.419   -1022.8733    175.59238     39.36912    39.228313    23.971905 
   29200    241.14459   -380.82572    216156.16    -20101.82    1527.4632   -21629.284     -989.895    176.71109    39.368425    39.227654    23.967023 
   29400    235.88821   -369.29261    216156.16   -20137.553    1494.1681   -21631.721   -942.39987    178.08622    39.366824    39.228202    23.989639 
   29600    238.88479   -313.87585    216156.16   -20155.635    1513.1491   -21668.785   -703.50317    177.32845    39.367672    39.226449    23.967893 
   29800    227.56136    -499.5514    216156.16   -20224.241     1441.424   -21665.665   -1490.0165    177.61737    39.370029    39.226912     23.96104 
   30000    230.83432   -448.08922    216156.16   -20253.122    1462.1557   -21715.278   -1299.9614    179.28299    39.370475    39.228551     23.98544 
   30200    228.16209   -466.29064    216156.16   -20187.932    1445.2292   -21633.161   -1336.4276    180.76274    39.370428    39.229327    23.972104 
   30400    237.85368   -331.70119    216156.16   -20184.932    1506.6178    -21691.55    -752.6515    182.47141     39.37103    39.229147    23.965852 
   30600    232.39513   -469.07046    216156.16   -20232.348    1472.0422   -21704.391    -1369.025    183.31845    39.371504    39.229032    23.956484 
   30800    232.54167   -251.96065    216156.16   -20173.494    1472.9704   -21646.464   -422.99482    182.51279    39.371792    39.228119    23.967176 
   31000    234.19868   -402.86891    216156.16   -20228.702    1483.4663   -21712.169   -1021.1534    182.13282    39.370712    39.225919    23.965425 
   31200    238.82591   -469.64913    216156.16   -20222.518    1512.7762   -21735.294   -1283.1261     182.4932    39.372535    39.225824    23.981657 
   31400     231.6065   -476.61207    216156.16   -20216.131    1467.0469   -21683.178   -1368.0491    182.40133    39.370881     39.22645    24.015297 
   31600    229.46849   -570.03852    216156.16   -20230.277    1453.5042   -21683.782   -1737.0592    184.08567     39.36964    39.225602    24.012411 
   31800     230.3516   -382.30649    216156.16   -20158.314     1459.098   -21617.412   -1015.6737    185.68022    39.368549    39.225701    24.034495 
   32000    236.39938   -531.80451    216156.16   -20253.999     1497.406   -21751.405   -1600.9633    186.73695    39.366827    39.227732    24.044813 
   32200    234.76493   -553.52481    216156.16    -20253.73     1487.053   -21740.783   -1637.3585        186.8    39.366486    39.229145    24.064833 
   32400    234.10459   -448.98272    216156.16   -20269.056    1482.8703   -21751.926   -1258.1018    187.67419    39.368298    39.229956    24.049944 
   32600    235.39523   -354.77036    216156.16   -20190.575    1491.0455    -21681.62   -864.80082    188.56483    39.369972    39.229836    24.033082 
   32800    238.03782    -324.9497    216156.16   -20197.132    1507.7842   -21704.916   -685.96952    189.22272    39.372612    39.229564     24.04262 
   33000    238.76002   -385.26335    216156.16   -20185.778    1512.3588   -21698.136    -983.4618    188.49369    39.372778    39.232721     24.05465 
   33200    233.90063   -356.37733    216156.16   -20234.739    1481.5784   -21716.317   -840.60829     189.4829    39.369345    39.236016    24.051366 
   33400    233.30001   -222.44041    216156.16   -20265.105    1477.7739   -21742.879   -288.74891    189.87954    39.367513    39.236222    24.036126 
   33600    228.88367   -301.13663    216156.16   -20280.674    1449.7998   -21730.473   -636.68845      190.352     39.37032    39.236187    24.016339 
   33800    242.30016   -406.64488    216156.16   -20135.584    1534.7828   -21670.367   -1121.4146    191.72224     39.37004    39.238792    24.016977 
   34000    235.63615   -167.80287    216156.16   -20228.866    1492.5715   -21721.438    -72.11393    192.11217    39.369477    39.240139     23.99324 
   34200    238.16119   -385.31722    216156.16   -20219.065    1508.5657   -21727.631   -997.65703    192.90441    39.369134    39.237553    23.986416 
   34400    232.03345    -416.0548    216156.16   -20220.215    1469.7512   -21689.967   -1149.8229    195.02767     39.36942    39.237588    23.961767 
   34600    238.08764   -459.42674    216156.16   -20083.217    1508.0998   -21591.317   -1329.4191    196.01951    39.370851    39.239415    23.978756 
   34800    231.52611    -402.0549    216156.16   -20141.591    1466.5376   -21608.128   -1107.9779    196.89584    39.370961    39.236745    23.992033 
   35000    230.57117   -456.40696    216156.16   -20167.136    1460.4889   -21627.625   -1328.1678    197.68416    39.374027    39.234121    23.988957 
   35200    242.31507   -289.49728    216156.16   -20088.025    1534.8773   -21622.902   -606.42259    198.10085    39.373944    39.234236    23.973334 
   35400    239.82786   -321.40365    216156.16   -20137.274    1519.1228   -21656.397    -705.2478    198.20921    39.375179    39.233285    23.942842 
   35600    235.87645   -363.94465    216156.16   -20159.076    1494.0937   -21653.169   -877.71524    198.87723     39.37665    39.234729    23.949306 
   35800    239.62897   -539.01506    216156.16   -20079.866    1517.8629   -21597.729   -1655.6683    200.00777    39.377335    39.236255    23.951653 
   36000    231.92959   -304.21024    216156.16   -20203.558    1469.0934   -21672.651   -672.27076    199.57036    39.378348    39.235616    23.937554 
   36200    230.70406   -539.71814    216156.16   -20174.933    1461.3306   -21636.264   -1645.9578    201.51399    39.378991    39.234929    23.928425 
   36400      235.987   -344.66556    216156.16   -20107.371    1494.7939   -21602.165   -859.12151    202.06431    39.377961    39.236696    23.925255 
   36600    236.70962   -388.52106    216156.16   -20106.862    1499.3712   -21606.233   -971.02604    203.47074    39.379487    39.236357    23.913024 
   36800    228.20487   -330.72465    216156.16   -20121.192    1445.5002   -21566.693    -772.1974    204.21589    39.381529    39.237879     23.90688 
   37000    231.27847   -268.09328    216156.16   -20137.953     1464.969   -21602.922   -538.91266    204.59192    39.380315    39.238616    23.890465 
   37200    234.48739   -351.30026    216156.16   -20154.134    1485.2951   -21639.429   -864.32771    206.00276     39.37958    39.238311    23.886221 
   37400    228.53989   -476.01797    216156.16   -20170.467    1447.6222    -21618.09   -1337.8566    208.24325    39.378938    39.239695    23.894601 
   37600     235.6157   -306.39979    216156.16   -20185.327     1492.442   -21677.769   -620.84803    209.25167     39.37971    39.237445    23.910123 
   37800    226.74952   -543.63956    216156.16   -20207.953    1436.2817   -21644.235   -1644.6113     209.8899    39.380863    39.236705    23.905924 
   38000    240.21923   -398.74776    216156.16   -20131.505    1521.6018   -21653.107   -1006.7031    211.31714    39.381508    39.236342    23.899211 
   38200      241.383    -302.2917    216156.16   -20148.221    1528.9734   -21677.195   -646.28147    212.03987    39.383921    39.236354    23.892516 
   38400    235.92918   -378.13619    216156.16   -20099.982    1494.4276    -21594.41   -952.69409    212.75507    39.385888    39.235242    23.883907 
   38600    237.33384    -303.7009    216156.16   -20144.491    1503.3251   -21647.816   -693.39696    214.46356    39.386801     39.23617    23.860825 
   38800    238.57447   -336.34392    216156.16   -20122.227    1511.1835   -21633.411   -734.38213    215.24286    39.386144    39.236468     23.86191 
   39000    239.93053   -307.12532    216156.16   -20087.031    1519.7731   -21606.804   -682.38115    217.23885    39.384917    39.235484    23.871618 
   39200    226.53446   -583.63243    216156.16   -20167.661    1434.9194    -21602.58   -1834.5849    218.50443    39.386461    39.232775    23.882295 
   39400     238.4677   -436.08904    216156.16   -20149.256    1510.5072   -21659.763   -1195.6803    219.65525    39.387315    39.231783    23.867786 
   39600    242.26935   -334.35138    216156.16   -20109.436    1534.5877   -21644.023   -778.08083    220.61945    39.390434    39.231825    23.886172 
   39800    232.65248    -303.2842    216156.16   -20205.635    1473.6723   -21679.307   -648.65741    222.62749     39.39067    39.231097    23.893307 
   40000     235.9886   -546.91528    216156.16   -20171.083     1494.804   -21665.887   -1687.6028    223.71387    39.391587     39.22958    23.895828 
   40200    233.80819   -401.35938    216156.16   -20168.086    1480.9928   -21649.079   -1016.8555    225.92041    39.389685    39.227986    23.896422 
   40400    233.16603   -554.61263    216156.16   -20217.812    1476.9253   -21694.737   -1640.4357     227.4322     39.39051     39.22522    23.886215 
   40600     232.5294   -458.01656    216156.16   -20097.422    1472.8927   -21570.315   -1262.6656     227.3862    39.391111    39.225738    23.884535 
   40800    233.67437   -408.30316    216156.16   -20183.756    1480.1452   -21663.901   -1062.3946    227.74599    39.389452    39.223939    23.883036 
   41000    232.75503   -343.81683    216156.16   -20183.043    1474.3219   -21657.365   -814.61654    227.77167    39.388848    39.223942    23.895299 
   41200    235.16197   -395.86365    216156.16   -20110.445     1489.568   -21600.013   -1009.8221    228.34441    39.385738    39.222397     23.91191 
   41400    232.73936   -285.95802    216156.16   -20176.058    1474.2226    -21650.28   -575.17124    229.75979    39.387059    39.224668    23.929358 
   41600    236.16594   -404.07015    216156.16    -20185.43    1495.9273   -21681.357   -1064.9868    231.22726    39.387357    39.226064    23.932124 
   41800    232.91204    -378.7636    216156.16   -20204.022    1475.3164   -21679.338   -919.15127    231.62696    39.388164    39.226022    23.932091 
   42000    236.87364   -340.32186    216156.16   -20237.958    1500.4101   -21738.368   -740.35681    231.99981    39.388499    39.223478    23.934171 
   42200    232.13388   -437.34075    216156.16   -20302.854    1470.3874   -21773.241   -1173.1416    232.98384    39.390622    39.219569    23.920128 
   42400    230.98083   -343.00789    216156.16   -20222.079    1463.0837   -21685.162   -773.98756    232.99217     39.39043    39.216519    23.908124 
   42600    229.36992   -359.50562    216156.16   -20264.616    1452.8799   -21717.496   -863.58583    233.08791    39.394628    39.214271    23.907327 
   42800     234.2769   -309.36866    216156.16     -20234.3    1483.9617   -21718.262   -652.93734    235.12989    39.396526    39.217488    23.905189 
   43000    235.97572    -411.7386    216156.16   -20252.154    1494.7225   -21746.876   -1094.9145    235.97177    39.397693    39.215239    23.918728 
   43200    238.68054   -383.87731    216156.16   -20258.517    1511.8553   -21770.372   -978.08213    235.58798    39.395877    39.214687    23.908153 
   43400    240.21393   -416.53044    216156.16   -20255.145    1521.5682   -21776.714    -1086.365    234.91252    39.395204    39.215507    23.908977 
   43600    230.58972   -476.37064    216156.16   -20256.442    1460.6063   -21717.049   -1322.5412    236.75793    39.397586    39.215186      23.9197 
   43800    227.87941   -467.23053    216156.16    -20287.66    1443.4386   -21731.098   -1322.5412    238.25026    39.397781    39.213977    23.912615 
   44000     225.4439   -476.78115    216156.16   -20326.714    1428.0116   -21754.725   -1316.6983    237.58986    39.395808    39.213163    23.898081 
   44200    235.29733   -242.15474    216156.16   -20266.736    1490.4254   -21757.162   -419.90772    238.80042    39.393373    39.214464    23.895666 
   44400    234.12628   -334.74587    216156.16   -20302.047    1483.0077   -21785.055   -704.39832    238.85076     39.39407    39.215479    23.879551 
   44600    230.37375   -232.94838    216156.16   -20310.324    1459.2383   -21769.562   -306.70973    238.35263    39.396278    39.214715    23.871504 
   44800    233.03815   -168.56981    216156.16   -20287.506    1476.1153   -21763.621   -58.928578    239.93006     39.39812    39.216392    23.860081 
   45000    235.63075   -365.50263    216156.16   -20225.195    1492.5373   -21717.732   -883.22617    241.02154    39.398723    39.216389     23.86509 
   45200    232.73378   -472.79503    216156.16   -20196.926    1474.1873   -21671.113   -1314.5852    242.00622    39.400796    39.215914    23.881136 
   45400    231.62547   -261.89436    216156.16   -20247.957     1467.167   -21715.124   -432.06413     243.5507    39.399901    39.214401    23.880209 
   45600    238.27025   -243.76444    216156.16    -20184.44    1509.2565   -21693.697   -380.47884     244.0055    39.400717    39.213604    23.873855 
   45800    231.32265   -475.14258    216156.16   -20199.066    1465.2488   -21664.315   -1369.7763    244.54215     39.40232    39.212384     23.89231 
   46000    238.28013   -402.71138    216156.16   -20112.912    1509.3191   -21622.231    -1040.483    246.09432    39.404153    39.213326    23.904991 
   46200    240.40647   -232.34589    216156.16   -20109.407    1522.7878   -21632.194   -306.16268     246.4694    39.404618    39.215448     23.89497 
   46400    229.59173    -320.2468    216156.16   -20196.308    1454.2848   -21650.593   -679.48305    247.14745    39.405534    39.216279    23.883197 
   46600    226.23297   -420.17159    216156.16   -20202.142    1433.0097   -21635.152   -1118.7697    246.25512    39.406755     39.21611     23.86111 
   46800    236.21823      -394.18    216156.16   -20186.289    1496.2585   -21682.547   -999.77218    246.06432    39.404823    39.213812     23.86978 
   47000     238.7166   -395.01982    216156.16   -20152.235    1512.0838   -21664.318   -1016.1152    247.31353     39.40378     39.21043     23.87173 
   47200    231.55049   -383.61665    216156.16   -20268.311     1466.692   -21735.003   -965.21299    246.94723    39.404589    39.209146    23.861601 
   47400    232.59605   -392.05235    216156.16   -20211.208    1473.3149   -21684.523   -1050.3291    247.83327    39.407321    39.207262    23.863582 
   47600    233.14619   -392.24448    216156.16   -20207.406    1476.7996   -21684.205   -1032.0475    249.02769    39.406901    39.208331     23.82765 
   47800    235.80348   -390.95643    216156.16    -20182.28    1493.6315   -21675.912   -977.91657    251.22331    39.407882     39.20888    23.824785 
   48000    239.13904   -364.74161    216156.16   -20194.937    1514.7596   -21709.696   -878.43943    252.17267    39.410577    39.208921    23.837411 
   48200    235.65513   -380.66662    216156.16   -20214.369    1492.6917   -21707.061   -1002.7835    252.55288    39.409068    39.208883    23.827979 
   48400    236.41164   -366.13004    216156.16   -20222.151    1497.4837   -21719.635    -873.1831    252.60436    39.407651    39.209202     23.83483 
   48600    232.12141   -383.48027    216156.16    -20275.25    1470.3084   -21745.558   -1003.9168    254.28629     39.40856     39.20869    23.856133 
   48800    238.76005   -330.16019    216156.16   -20234.317     1512.359   -21746.676   -757.65439    255.57136    39.407593     39.21005    23.871736 
   49000    238.24216   -428.03518    216156.16   -20214.628    1509.0786   -21723.707    -1167.861    256.70733    39.408433    39.211766     23.85612 
   49200     237.7353    -314.6885    216156.16    -20162.87     1505.868   -21668.738   -661.11898    259.15298     39.40875    39.213503    23.827526 
   49400    233.99317   -340.96533    216156.16   -20245.971    1482.1645   -21728.135   -793.41942    258.48124    39.409598    39.215635     23.80929 
   49600    229.10486   -445.87482    216156.16   -20227.686    1451.2009   -21678.887   -1257.4451    258.73877    39.408826     39.21748    23.802348 
   49800     238.8643   -221.81184    216156.16    -20206.49    1513.0193   -21719.509   -300.43576    259.32449    39.410882    39.217331    23.800679 
   50000    233.05385   -342.34294    216156.16   -20243.443    1476.2147   -21719.658   -837.68281    260.18965    39.413024    39.217222    23.816804 
   50200    233.26012    -390.1435    216156.16    -20170.38    1477.5212   -21647.902   -985.75277    260.82484    39.414843    39.217959    23.787648 
   50400    233.98817   -484.43547    216156.16   -20220.923    1482.1328   -21703.056   -1402.9089    261.72203    39.417158    39.218887    23.775227 
   50600    242.27898   -554.65179    216156.16   -20118.235    1534.6487   -21652.884   -1713.4326    264.73198    39.417038      39.2208    23.784302 
   50800    231.22023   -408.64482    216156.16   -20285.065    1464.6001   -21749.665   -1088.3825    265.59352    39.417586    39.221685    23.766877 
   51000    236.08974   -408.16617    216156.16   -20250.837    1495.4447   -21746.282   -1067.8779    265.18058    39.418915    39.224538    23.794199 
   51200    237.56455   -414.13243    216156.16   -20283.998    1504.7864   -21788.784   -1128.0141    265.63615    39.418044    39.224493    23.805363 
   51400    236.94927   -456.98619    216156.16   -20275.538    1500.8892   -21776.427    -1293.673    266.42318    39.418562     39.22496    23.792185 
   51600    233.42485   -281.82581    216156.16   -20296.384    1478.5647   -21774.949    -541.9763    268.11346    39.420227    39.226137    23.800075 
   51800    229.76823   -232.06805    216156.16   -20239.382    1455.4029   -21694.785   -346.95599    269.36905    39.419263    39.226513    23.816274 
   52000    224.87099   -481.26425    216156.16   -20281.215    1424.3826   -21705.598    -1375.105    269.79714    39.418199    39.225279    23.817406 
   52200    229.80175   -341.73714    216156.16   -20325.582    1455.6151   -21781.197   -771.61345    271.60489    39.417019    39.227121    23.809679 
   52400    222.57413   -281.35565    216156.16   -20354.096    1409.8338    -21763.93   -534.77252    271.72722    39.417526    39.227427    23.828708 
   52600     232.1449   -301.81207    216156.16   -20243.964    1470.4572   -21714.421   -590.84648     272.5484    39.415136    39.229894    23.828245 
   52800    232.09102   -431.41548    216156.16   -20187.843    1470.1159   -21657.959   -1180.6136    274.01532     39.41388    39.229407    23.805178 
   53000    235.63541   -324.41939    216156.16   -20173.998    1492.5669   -21666.565   -718.08808    274.15804    39.414221    39.228556    23.806112 
   53200    235.56528   -250.69166    216156.16   -20255.522    1492.1226   -21747.645   -449.39641    275.06286    39.417013    39.230315    23.824603 
   53400    233.29591   -482.25817    216156.16    -20224.16     1477.748   -21701.908    -1414.698    277.40053    39.417065    39.231148    23.854269 
   53600    226.02805   -396.35127    216156.16   -20272.865    1431.7117   -21704.577    -1031.588    278.80542    39.415515    39.229671    23.861293 
   53800     235.0234   -369.79075    216156.16   -20216.677    1488.6902   -21705.368   -868.74322    279.78681     39.41691    39.230764    23.882769 
   54000    233.18271   -297.56832    216156.16   -20208.467    1477.0309   -21685.498   -623.62769    278.87591    39.418205    39.232871    23.868102 
   54200    235.70415   -437.19095    216156.16   -20168.049    1493.0023   -21661.052   -1158.6051    279.33574    39.418852    39.233643     23.86327 
   54400    237.68289   -396.54007    216156.16   -20123.529    1505.5361   -21629.065   -1048.0131    279.96544    39.417577    39.232775    23.842521 
   54600    235.70845   -497.36786    216156.16   -20171.701    1493.0295   -21664.731   -1424.6378    279.56124    39.416864    39.234676    23.845204 
   54800    242.56677   -396.83163    216156.16   -20162.771    1536.4716   -21699.243   -1054.6095      280.954    39.416732    39.234786    23.842781 
   55000    243.10966   -411.88489    216156.16   -20123.841    1539.9104   -21663.751   -1073.7897    281.09661    39.417871    39.234424    23.838591 
   55200     229.6435   -385.25592    216156.16   -20256.277    1454.6127    -21710.89   -958.59447    282.56843    39.418782     39.23605    23.840356 
   55400    235.47578   -492.15105    216156.16   -20187.512    1491.5557   -21679.068   -1496.3899    281.92989    39.420337    39.235817    23.824049 
   55600    230.66558   -437.40207    216156.16   -20154.154    1461.0869   -21615.241   -1198.0071    283.71178    39.420706    39.236265    23.837845 
   55800    239.19473   -389.50966    216156.16   -20062.434    1515.1124   -21577.546   -966.89445    284.64108    39.423037    39.236017    23.822235 
   56000    235.45273    -380.3728    216156.16   -20104.789    1491.4097   -21596.199   -951.42618    284.95026    39.422904    39.233028     23.82979 
   56200    240.07847   -381.75871    216156.16   -20116.611    1520.7102   -21637.321   -979.22867    284.92697    39.420721    39.231131     23.81481 
   56400    232.46441   -434.07265    216156.16   -20245.059     1472.481    -21717.54   -1199.9638    286.77653     39.41923     39.23308    23.794757 
   56600    225.71853   -397.99546    216156.16   -20330.835    1429.7511   -21760.586   -1026.6537    287.58401    39.422238     39.23491     23.79355 
   56800    236.70761   -431.41179    216156.16   -20237.577    1499.3584   -21736.935   -1198.4443    287.53343    39.424194    39.236079     23.79563 
   57000    231.67895   -444.95927    216156.16   -20294.124    1467.5057    -21761.63    -1210.209     288.2294    39.423445     39.23839    23.791637 
   57200    231.56461   -291.81514    216156.16    -20171.51    1466.7815   -21638.292   -536.13932    289.09913    39.423632    39.239484      23.7879 
   57400    237.01925   -292.69947    216156.16   -20243.564    1501.3324   -21744.897   -565.97612    289.96824    39.423496    39.241402    23.782718 
   57600    229.16241   -525.91719    216156.16   -20289.802    1451.5654   -21741.367   -1586.5948    291.88881    39.423837    39.239481    23.764861 
   57800    238.93303   -432.52445    216156.16   -20225.522    1513.4547   -21738.977    -1207.735    293.24241    39.422117    39.238014    23.746936 
   58000    236.42332   -417.59979    216156.16    -20255.34    1497.5576   -21752.897   -1145.8848    293.72579    39.422526    39.237273    23.769456 
   58200    234.99678   -404.62139    216156.16   -20215.573    1488.5216   -21704.095   -1089.3458    294.78907    39.421321    39.236482    23.776482 
   58400    239.36488   -340.95551    216156.16   -20235.401    1516.1901   -21751.591   -825.01347    295.20626    39.420862    39.236034    23.801795 
   58600    235.37741   -262.41995    216156.16   -20268.994    1490.9326   -21759.926   -432.04303    295.20226    39.421181    39.237045    23.795748 
   58800    235.15568   -598.13266    216156.16   -20239.116    1489.5281   -21728.644   -1890.6291    296.71202    39.423285    39.235584    23.795545 
   59000    236.81628   -431.12555    216156.16   -20158.459    1500.0467   -21658.506   -1150.6789    297.91861    39.419329    39.234041    23.784914 
   59200    234.37176   -279.96018    216156.16   -20210.179    1484.5626   -21694.742   -520.38011    298.75839    39.417041    39.232529    23.789699 
   59400    235.64108   -471.26159    216156.16   -20214.525    1492.6027   -21707.128    -1348.949    300.22653    39.417097    39.234051    23.784588 
   59600    233.93788   -481.61982    216156.16   -20296.345    1481.8143    -21778.16   -1422.4282    301.80362    39.416609    39.234963     23.77228 
   59800    233.18227   -407.35598    216156.16   -20237.713    1477.0281   -21714.741   -1094.2845      300.976    39.412999    39.235282    23.793746 
   60000    239.09916   -366.07221    216156.16   -20208.064     1514.507   -21722.571   -894.69718    301.18043     39.40964    39.237328    23.812331 
   60200      236.574   -375.00983    216156.16   -20253.251    1498.5121   -21751.763   -929.64354    302.92622    39.409809    39.238621    23.811371 
   60400    232.38673   -327.63574    216156.16    -20220.79     1471.989   -21692.779   -716.16665    301.83341    39.409915    39.239073    23.810789 
   60600    235.38628   -495.39559    216156.16   -20152.363    1490.9888   -21643.352   -1456.5449    303.72702     39.40937    39.236427    23.805494 
   60800     238.5964   -422.56493    216156.16   -20129.815    1511.3224   -21641.138   -1152.8743    305.23239    39.410913     39.23793    23.801404 
   61000    237.15392   -519.82598    216156.16   -20236.324    1502.1854   -21738.509   -1601.1802    305.35052    39.414581    39.239768    23.802622 
   61200    234.67067   -319.07448    216156.16   -20188.915     1486.456   -21675.371   -668.87833    305.47161    39.414741    39.241109    23.821888 
   61400    240.56849   -177.20008    216156.16   -20211.412     1523.814   -21735.226   -86.170419    304.74028    39.413362    39.240017    23.821188 
   61600    240.40177   -482.15095    216156.16    -20230.86     1522.758   -21753.618   -1383.2328    306.71695    39.410921      39.2407    23.846843 
   61800     229.8885   -338.53141    216156.16   -20269.008    1456.1647   -21725.172   -777.01824    306.74949    39.410047    39.239644    23.855329 
   62000    236.63059    -348.8887    216156.16   -20207.685    1498.8705   -21706.555   -821.66017    306.97198    39.412806    39.239221    23.856333 
   62200    239.60317   -450.08219    216156.16   -20191.547    1517.6995   -21709.246   -1241.1294    309.10124    39.412734    39.239446    23.843588 
   62400    238.26348   -443.01226    216156.16   -20206.466    1509.2136   -21715.679    -1203.925    310.07631    39.414085    39.237438    23.852641 
   62600    233.19383   -330.82075    216156.16   -20220.508    1477.1013   -21697.609   -776.40917    310.21434    39.412691    39.236688    23.855185 
   62800    233.66989   -329.14885    216156.16   -20279.422    1480.1168   -21759.539   -705.57472    312.92047    39.411945    39.235934    23.861428 
   63000    234.23539   -397.24656    216156.16   -20173.957    1483.6988   -21657.656    -1006.331    314.43944    39.408444     39.23545    23.854977 
   63200     231.5046   -277.99313    216156.16   -20189.374    1466.4014   -21655.775   -464.52555    314.35757    39.407729    39.236226    23.852163 
   63400    232.27897   -396.05265    216156.16   -20249.777    1471.3064   -21721.083   -1041.1948    315.37712    39.406777    39.240405    23.843204 
   63600    235.31796   -307.22986    216156.16   -20229.349     1490.556   -21719.905    -623.3769    317.08578    39.405853    39.239299    23.817645 
   63800    235.03799   -174.90055    216156.16   -20258.271    1488.7827   -21747.053   -63.879338    317.56493    39.405493    39.238597    23.827298 
   64000     240.2437   -383.14131    216156.16   -20189.845    1521.7568   -21711.601   -985.36435    319.08099    39.405081     39.23821     23.84311 
   64200     233.0096   -376.20236    216156.16   -20173.959    1475.9344   -21649.894   -911.88162    320.42047    39.404624    39.240199    23.847259 
   64400    230.25907   -557.14312    216156.16   -20195.394    1458.5119   -21653.906   -1714.9393    323.37253     39.40316    39.241302    23.845048 
   64600    227.42714   -272.93613    216156.16   -20235.767    1440.5738   -21676.341   -502.38429    323.00316    39.404844    39.240975    23.835565 
   64800    231.80127   -318.06458    216156.16   -20212.361    1468.2805   -21680.641   -716.62667    323.98566    39.404578    39.242868    23.839806 
   65000    239.27186   -340.91457    216156.16   -20125.889    1515.6009    -21641.49   -763.05699    324.03577    39.402551    39.241577    23.816451 
   65200    240.85746   -378.35363    216156.16   -20180.541    1525.6445   -21706.185   -943.99212    325.09982    39.403571    39.240903    23.808704 
   65400    236.06417   -270.29496    216156.16   -20198.806    1495.2827   -21694.089   -485.62451     326.5719    39.404796     39.24126    23.810514 
   65600    238.19056   -278.25927    216156.16   -20177.806    1508.7517   -21686.558   -484.14931    328.13578     39.40616    39.241324    23.829708 
   65800    237.05106   -395.26515    216156.16   -20210.977    1501.5339    -21712.51   -1047.8731    328.68587    39.406131    39.240369    23.851101 
   66000    237.17824   -473.43985    216156.16    -20222.67    1502.3395    -21725.01   -1369.7551    330.81948    39.407019    39.240214     23.84866 
   66200    231.21039   -396.66204    216156.16   -20259.065    1464.5378   -21723.603   -1013.4324     330.4957    39.407434    39.240164    23.842329 
   66400    236.51867   -443.18469    216156.16   -20254.648    1498.1616    -21752.81   -1198.3592    331.83441    39.406482    39.239285    23.820005 
   66600    230.77536   -307.37674    216156.16   -20270.534    1461.7822   -21732.316   -634.40976    330.69293    39.405952    39.238775    23.787685 
   66800    231.71591   -341.83048    216156.16   -20262.057    1467.7399   -21729.797   -810.71665    330.26893    39.407628    39.240727    23.787109 
   67000    228.22702   -488.52109    216156.16   -20331.851    1445.6405   -21777.492   -1406.9328    330.41716    39.407274    39.243565    23.775312 
   67200     233.0504   -449.94876    216156.16   -20245.456    1476.1928   -21721.649   -1267.8858    331.50806    39.407587    39.243449    23.751875 
   67400    223.48174   -347.47359    216156.16   -20189.424    1415.5828   -21605.007   -845.01339    331.84355    39.406479    39.241377    23.749823 
   67600    240.12735   -338.80173    216156.16   -20115.357    1521.0198   -21636.377    -848.1752     332.7315    39.406649     39.24079    23.725402 
   67800    233.26548   -506.91987    216156.16   -20184.046    1477.5552   -21661.601   -1468.2974    334.11452    39.406186    39.241827    23.708074 
   68000    232.37618   -402.47971    216156.16   -20219.648    1471.9221    -21691.57   -1053.3347    331.97384    39.409052    39.241654    23.722807 
   68200    236.43598   -382.77103    216156.16   -20190.272    1497.6378   -21687.909   -990.17102     332.2864    39.409243    39.234979     23.71134 
   68400    240.69746   -442.39585    216156.16   -20167.144     1524.631   -21691.775     -1203.21    332.82146    39.409754    39.234128    23.719448 
   68600    233.51987    -398.0897    216156.16    -20185.58    1479.1666   -21664.747   -1061.8381    333.03172    39.411195    39.232224    23.720826 
   68800     235.3946   -349.85928    216156.16   -20164.215    1491.0415   -21655.257   -882.50222    335.47721     39.41137    39.230418    23.717032 
   69000    237.29365   -363.75541    216156.16   -20197.247    1503.0705   -21700.317     -924.455    337.69172    39.408594    39.231999     23.72115 
   69200    232.99821   -435.90823    216156.16   -20291.419    1475.8622   -21767.282   -1200.2417    336.92242    39.407992    39.232198    23.731757 
   69400    230.97751    -238.0501    216156.16   -20327.602    1463.0627   -21790.665   -373.44315    336.14312    39.406681    39.232327    23.721923 
   69600    234.68377   -299.37689    216156.16   -20143.229     1486.539   -21629.768   -621.54195     338.3821    39.405318    39.233263     23.73248 
   69800    235.69699   -350.31143    216156.16   -20240.869    1492.9569   -21733.826   -830.98244    338.93913    39.404856    39.231001    23.746155 
   70000     237.5848   -448.54556    216156.16   -20223.604    1504.9147   -21728.519   -1258.4762    338.86617     39.40454    39.229142    23.755162 
   70200    233.80074   -359.43283    216156.16   -20229.888    1480.9456   -21710.833    -871.0588    339.17737    39.403938    39.228353    23.771806 
   70400    240.39916   -391.76315    216156.16   -20162.824    1522.7415   -21685.566   -1003.1595    340.07879    39.402361     39.22843    23.801106 
   70600    234.69074   -416.73024    216156.16   -20243.032    1486.5831   -21729.615   -1133.2419    341.38949    39.401365    39.227731    23.795943 
   70800    229.09582   -420.00895    216156.16   -20236.669    1451.1436   -21687.813   -1098.5111    341.54527    39.398931    39.226928    23.772299 
   71000    232.08257   -372.76066    216156.16   -20269.988    1470.0624   -21740.051   -900.68873      341.614    39.397556    39.227225    23.761029 
   71200    231.44632   -439.33349    216156.16     -20257.5    1466.0322   -21723.532    -1241.474    343.09028    39.398224    39.225162    23.745204 
   71400     237.0092   -535.50979    216156.16   -20283.115    1501.2687   -21784.384   -1625.1165    344.16549    39.398783    39.225896    23.734124 
   71600    242.16738   -343.30635    216156.16   -20244.728    1533.9418    -21778.67   -781.59287    343.58562    39.397789    39.225056    23.727846 
   71800    223.23012   -452.63269    216156.16   -20306.955     1413.989   -21720.944   -1249.5593    344.41669    39.400423    39.226745    23.735265 
   72000    231.51062   -399.90432    216156.16   -20291.765    1466.4395   -21758.204   -1030.4041     345.9342    39.399684    39.227476    23.737476 
   72200     243.3644   -407.22749    216156.16   -20152.209     1541.524   -21693.733   -1040.8618    347.86729    39.398876    39.228814    23.732682 
   72400    234.81191   -366.97854    216156.16   -20233.337    1487.3506   -21720.688   -851.25389    348.56054    39.399918    39.229483    23.743396 
   72600    233.53867   -267.63467    216156.16   -20185.552    1479.2856   -21664.838   -489.77148    347.66154    39.399335    39.229913    23.759971 
   72800     241.3533   -484.49164    216156.16   -20192.464    1528.7852   -21721.249   -1409.7098    347.31608    39.401228    39.229965     23.74233 
   73000    236.84063   -342.22482    216156.16   -20235.431     1500.201   -21735.632   -783.80303    349.20486    39.402763    39.231691    23.714563 
   73200    239.28927   -347.96843    216156.16   -20122.354    1515.7112   -21638.065   -799.71804    350.28229    39.403031    39.233196    23.716186 
   73400    232.65918   -408.87339    216156.16   -20124.362    1473.7147   -21598.076   -1073.9714    350.95533    39.403069    39.233391    23.724055 
   73600    234.35888   -354.64458    216156.16   -20118.694    1484.4811   -21603.175   -871.68277    350.50476    39.404212    39.230564     23.72967 
   73800    231.45045   -289.63214    216156.16   -20226.917    1466.0584   -21692.975   -541.48876    349.68311    39.406908    39.229632    23.724438 
   74000    234.98591    -276.0719    216156.16   -20208.013    1488.4527   -21696.466   -551.11158    352.54937    39.409101    39.227967    23.718148 
   74200    239.63164   -322.01424    216156.16   -20134.674    1517.8799   -21652.554   -709.71461    353.40391    39.407845     39.22525    23.683153 
   74400    233.53589   -330.41884    216156.16    -20141.59     1479.268   -21620.858   -685.99011    354.21625    39.407225     39.22352    23.664394 
   74600    230.98546   -327.47592    216156.16   -20227.603    1463.1131   -21690.716   -724.88792     354.8941    39.406153    39.220934    23.660231 
   74800    231.60263   -249.77786    216156.16   -20206.976    1467.0224   -21673.998   -400.64243     357.2015    39.408066    39.220811    23.677201 
   75000    233.75864   -419.41697    216156.16   -20249.813     1480.679   -21730.492   -1100.3909    357.44457    39.407949    39.221105    23.685073 
   75200    235.95102   -539.29147    216156.16    -20173.38     1494.566   -21667.946   -1624.1643    356.54329    39.408691    39.218237     23.68797 
   75400    232.84352   -346.53539    216156.16   -20271.304    1474.8824   -21746.186    -805.6522    357.23342    39.409411    39.218807    23.656093 
   75600    232.13177    -369.2517    216156.16    -20256.89     1470.374   -21727.264   -901.91246    358.84022    39.411913    39.219143    23.640661 
   75800    232.43484   -428.02843    216156.16   -20190.369    1472.2937   -21662.663    -1168.477    358.57728     39.41354     39.21896    23.640135 
   76000    239.75446   -361.90479    216156.16    -20175.18    1518.6579   -21693.838   -829.91031    358.78183    39.414938    39.218656    23.635141 
   76200    233.42687   -561.53454    216156.16   -20271.031    1478.5775   -21749.609   -1707.9207    358.27978     39.41562    39.221418    23.644071 
   76400    226.89847   -537.57965    216156.16   -20245.587    1437.2251   -21682.812   -1633.3073    357.66253    39.416191    39.221233     23.62663 
   76600    233.31005   -402.93209    216156.16   -20220.934    1477.8375   -21698.772   -1097.7514    358.35479    39.415904    39.223762    23.630597 
   76800    233.28216   -541.20238    216156.16   -20249.296    1477.6608   -21726.956   -1647.9594    360.11415    39.415348    39.227347    23.622116 
   77000    241.41545   -453.47174    216156.16    -20231.32    1529.1789   -21760.499   -1312.9866    361.85168     39.41394    39.229945    23.618444 
   77200     237.4743   -361.76414    216156.16   -20220.379    1504.2148   -21724.594   -869.76348    362.98967    39.412789     39.23106    23.616649 
   77400    238.60792   -455.74291    216156.16   -20225.434    1511.3954    -21736.83   -1262.7981    363.84851    39.412651    39.232735    23.599586 
   77600    233.89797   -391.95753    216156.16   -20295.012    1481.5615   -21776.573   -998.45824    365.26399    39.413686    39.232126    23.610079 
   77800    232.52718   -315.94924    216156.16   -20258.563    1472.8786   -21731.441   -697.50644    365.71558     39.41343    39.231027    23.588701 
   78000    227.60097   -335.14194    216156.16   -20305.223    1441.6749   -21746.898   -743.86144    366.50009    39.415622    39.227472    23.574022 
   78200    243.34436   -358.98732    216156.16   -20228.872     1541.397   -21770.269   -843.65454    366.07806    39.414177    39.227322    23.559031 
   78400    230.06752   -410.77243    216156.16   -20236.271    1457.2986   -21693.569     -1063.67    366.92724     39.41548    39.227642    23.578517 
   78600    233.55892   -367.84347    216156.16   -20240.951    1479.4139   -21720.365    -869.8073    367.02976    39.415751    39.230021    23.584776 
   78800    234.12648   -454.41319    216156.16   -20197.293    1483.0089   -21680.302   -1275.5849    368.92644    39.415769    39.230123    23.605333 
   79000     234.9194   -565.56026    216156.16    -20161.42    1488.0315   -21649.451   -1790.4813    369.82469    39.415431    39.229012    23.598701 
   79200    240.22152   -202.32872    216156.16   -20155.571    1521.6163   -21677.187   -197.72188    369.47912    39.415213    39.228533    23.611165 
   79400    237.69336   -256.42955    216156.16   -20120.181    1505.6024   -21625.784   -383.91563    369.67895    39.412356    39.229935     23.59791 
   79600    231.66418   -366.35484    216156.16   -20234.494    1467.4122   -21701.906   -899.26598    371.50102    39.413687    39.230953    23.611554 
   79800    232.28582   -479.71586    216156.16   -20230.387    1471.3498   -21701.736   -1357.8971    371.59499    39.414381    39.232139      23.6092 
   80000    229.90192   -375.26218    216156.16   -20259.659    1456.2497   -21715.909   -966.90063    372.22837    39.417619    39.231408    23.632602 
   80200    234.72478   -255.25852    216156.16   -20266.113    1486.7987   -21752.911   -423.47897    372.90974    39.417213    39.231911    23.611396 
   80400    238.12649   -104.10163    216156.16   -20257.955    1508.3459   -21766.301    266.63465    372.64071    39.415696    39.233374    23.592021 
   80600    232.59539   -302.49953    216156.16    -20257.26    1473.3107   -21730.571   -641.05149    372.41525    39.415555    39.236064    23.593378 
   80800     232.8833   -336.41529    216156.16   -20244.099    1475.1343   -21719.233   -760.07953    372.30467      39.4146    39.237935    23.586549 
   81000    231.64158    -408.1036    216156.16   -20240.192     1467.269   -21707.461   -1073.2303    373.28013    39.412477    39.239632    23.567245 
   81200    238.92077   -324.34572    216156.16   -20202.748     1513.377   -21716.125   -686.25058    374.11009    39.414772    39.236659    23.559471 
   81400     235.6637   -554.30766    216156.16   -20181.324     1492.746    -21674.07   -1695.1343    375.52367    39.417788    39.236764    23.560937 
   81600     235.1626   -472.32192    216156.16   -20218.539     1489.572   -21708.111   -1344.9402    375.93925    39.418626    39.238232    23.546681 
   81800    229.90928   -313.21415    216156.16   -20247.309    1456.2963   -21703.605   -696.46514    376.60101    39.421025    39.239843     23.54367 
   82000    230.12331   -460.73699    216156.16   -20170.305     1457.652   -21627.957   -1333.8956    378.93205    39.422286     39.24189    23.569147 
   82200    237.26272   -432.16577    216156.16   -20079.818    1502.8746   -21582.692   -1194.1925    379.07854    39.423753    39.240621    23.564062 
   82400    230.20839   -411.93466    216156.16   -20129.094    1458.1909   -21587.285   -1149.1752      379.986    39.422257    39.244967    23.533542 
   82600    239.66625    -363.0894    216156.16   -20056.217    1518.0991   -21574.316    -919.7463    379.99295    39.422816    39.246867     23.51244 
   82800    236.63718    -415.5721    216156.16    -20167.22    1498.9122   -21666.132   -1125.5662    378.79219    39.421913    39.247968     23.50129 
   83000    235.66916   -403.16457    216156.16   -20094.028    1492.7807   -21586.809   -1037.1238    381.41116    39.420122    39.246082    23.476692 
   83200    240.43988   -299.33939    216156.16   -20152.971    1522.9994    -21675.97   -628.41365     380.8615    39.417072    39.247802    23.480283 
   83400    234.21884   -359.67566    216156.16   -20202.702     1483.594   -21686.296   -843.23334    381.75194    39.416901    39.248199    23.477564 
   83600    233.70905   -333.25635    216156.16   -20231.488    1480.3649   -21711.853   -812.41754    380.62429     39.41555    39.248256    23.473182 
   83800    229.17376   -421.82578    216156.16   -20182.097    1451.6373   -21633.735   -1175.2424    382.52234    39.415059    39.250232    23.464704 
   84000    233.80631   -432.08935    216156.16   -20136.418    1480.9809   -21617.399   -1189.5092    383.63592    39.414747    39.249396    23.445873 
   84200    238.42889   -359.96532    216156.16   -20120.553    1510.2613   -21630.814   -905.92469    383.12553    39.413298    39.249806    23.433212 
   84400     230.8412   -450.23257    216156.16   -20163.469    1462.1992   -21625.668   -1279.9314    382.85262    39.412583    39.250773      23.4522 
   84600    234.60912   -352.34791    216156.16    -20101.93    1486.0661   -21587.996   -850.52677    383.40901    39.411476    39.250728    23.444869 
   84800    233.44375    -293.6998    216156.16   -20148.219    1478.6844   -21626.904   -627.19435    385.43144    39.407978    39.249783    23.452543 
   85000    228.12009    -339.6843    216156.16   -20154.016    1444.9631   -21598.979   -798.33623      388.194    39.407028    39.252674    23.483081 
   85200    231.28713   -297.45686    216156.16   -20181.872    1465.0239   -21646.896   -607.67733    389.15039    39.407916    39.252546    23.474363 
   85400    230.41591   -448.81963    216156.16   -20264.576    1459.5054   -21724.081   -1279.7613    390.00067    39.408404    39.252535    23.484545 
   85600    230.03201    -419.7647    216156.16   -20253.425    1457.0737   -21710.499   -1121.8996    392.43593    39.408801    39.251294    23.483074 
   85800    235.97551   -445.15647    216156.16   -20173.115    1494.7211   -21667.836   -1237.1438    393.56231    39.409019    39.251129    23.456616 
   86000    229.07273   -507.10662    216156.16   -20211.922    1450.9974   -21662.919   -1488.3717    395.54349     39.41091    39.251229    23.479452 
   86200    236.32002   -540.55872    216156.16    -20218.17    1496.9033   -21715.073   -1641.4067    395.67192    39.412017    39.249953    23.489182 
   86400     232.6516   -425.18733    216156.16   -20278.031    1473.6667   -21751.697   -1142.3514    395.94573    39.411576    39.249781    23.475984 
   86600    232.60462   -328.17375    216156.16   -20191.683    1473.3692   -21665.052   -751.48539    396.13687    39.411493    39.249799    23.479349 
   86800    221.40872   -302.65143    216156.16   -20245.777    1402.4519   -21648.228   -624.77117     395.5264       39.411    39.251841    23.470924 
   87000    233.48698   -338.98216    216156.16     -20126.6    1478.9582   -21605.558   -803.90293    396.75917    39.409787    39.253141    23.458585 
   87200    239.06939   -377.43588    216156.16   -20108.872    1514.3185   -21623.191   -930.13337    398.69841    39.410196    39.251885    23.485186 
   87400    229.47974   -573.11226    216156.16   -20214.606    1453.5754   -21668.181   -1801.2134    399.10637    39.408502    39.251417    23.494855 
   87600    238.27179   -430.56783    216156.16   -20129.203    1509.2663   -21638.469   -1188.1348    400.86445    39.404789    39.249437    23.522203 
   87800    226.75729   -432.65816    216156.16   -20173.437    1436.3309   -21609.768   -1179.7241    400.84301    39.400509    39.247086    23.522603 
   88000    236.64408   -466.30651    216156.16   -20173.716     1498.956   -21672.672   -1325.8354    402.32875    39.397028    39.244852     23.52502 
   88200    232.17872   -326.54035    216156.16   -20217.392    1470.6714   -21688.063   -701.91962    402.34461    39.396928    39.244577    23.503769 
   88400    236.14631   -454.49696    216156.16    -20118.43     1495.803   -21614.233    -1317.542    403.01449    39.394262    39.245613    23.483024 
   88600    243.05587   -370.13983    216156.16   -20161.136    1539.5697   -21700.705    -918.4408    404.09752    39.395569    39.246175     23.48689 
   88800    234.10678   -466.45268    216156.16    -20186.18    1482.8842   -21669.065   -1341.4649    403.77089    39.394556    39.246495     23.48998 
   89000    239.86841   -547.10617    216156.16   -20170.499    1519.3796   -21689.878    -1650.116    405.54327    39.394099    39.248488    23.470964 
   89200    233.69572    -441.8006    216156.16   -20162.131    1480.2804   -21642.411   -1184.6917    405.83566    39.394969    39.251375    23.456525 
   89400    231.80138   -507.28882    216156.16   -20157.481    1468.2812   -21625.762    -1530.268    404.84661    39.394199    39.251241    23.453877 
   89600      228.479   -477.99396    216156.16    -20248.79    1447.2366   -21696.026   -1393.9907    404.51292    39.394948    39.252504    23.459555 
   89800    234.22117    -403.7179    216156.16   -20137.039    1483.6088   -21620.648   -1077.7833    405.60336    39.394075    39.250654    23.448496 
   90000    230.85527   -467.07243    216156.16   -20179.397    1462.2884   -21641.685   -1299.0985    405.20327    39.391977    39.252016    23.470734 
   90200    230.87082   -493.22785    216156.16   -20206.033    1462.3869    -21668.42   -1438.3364     406.1769    39.392172    39.252725    23.485159 
   90400    233.56363   -417.59688    216156.16   -20138.183    1479.4437   -21617.627   -1112.3212     408.3785     39.39132    39.252591    23.505982 
   90600      231.843   -465.40153    216156.16   -20175.462    1468.5449   -21644.007   -1306.2171    409.19048    39.391321    39.251435    23.478981 
   90800    235.69323    -277.2496    216156.16   -20166.814    1492.9331   -21659.747   -553.68483     409.8196    39.393108    39.251383    23.464501 
   91000    234.13609   -401.22009    216156.16   -20196.228    1483.0698   -21679.298   -1047.3316    411.85164    39.391951    39.250427    23.462607 
   91200    227.28092   -335.55253    216156.16   -20268.661    1439.6477   -21708.309   -782.59726    411.43368    39.390167    39.250764    23.478609 
   91400    238.02429   -392.86451    216156.16   -20200.004    1507.6986   -21707.703   -1004.0115    413.86102    39.389306    39.249997    23.464058 
   91600    239.67907   -344.95028    216156.16    -20155.57    1518.1803   -21673.751   -807.78719    414.52488    39.388851     39.24864    23.455496 
   91800    236.60748   -454.96578    216156.16   -20194.395    1498.7241   -21693.119   -1266.1507    414.59702    39.387681    39.250367    23.445293 
   92000    237.93591   -564.40671    216156.16   -20162.107    1507.1387   -21669.246   -1741.0548    416.99749    39.385063    39.248409    23.450638 
   92200     233.8994   -420.62387    216156.16   -20199.236    1481.5706   -21680.806   -1146.3834    417.85762    39.384567    39.248887    23.444025 
   92400    233.41662   -266.36074    216156.16   -20196.697    1478.5125   -21675.209   -471.84652    419.25438      39.3834    39.247447    23.475474 
   92600    235.63153   -455.19984    216156.16    -20152.64    1492.5422   -21645.182   -1320.4503    419.99559    39.384687    39.248775    23.494318 
   92800    233.87338   -282.18515    216156.16    -20217.03    1481.4058   -21698.436   -522.36508    422.26769    39.383479    39.248171    23.522952 
   93000    232.95946   -492.89885    216156.16   -20262.166    1475.6168   -21737.783   -1452.1613    423.27543    39.385076    39.248568    23.528656 
   93200     229.2859   -505.73562    216156.16   -20210.499    1452.3476   -21662.847   -1521.5217     423.7138    39.385716    39.247784    23.551242 
   93400     228.9401   -415.83443    216156.16   -20265.933    1450.1573    -21716.09   -1111.8582    424.95877    39.386181    39.245045    23.559453 
   93600    233.68573   -224.37794    216156.16   -20235.514    1480.2172   -21715.731   -301.50395    425.25101     39.38642    39.241739    23.568197 
   93800    231.68388   -301.23513    216156.16   -20254.659     1467.537   -21722.196   -663.93922     425.5115    39.386555    39.240202    23.580276 
   94000     235.4849    -191.4139    216156.16   -20267.209    1491.6135   -21758.822   -126.81336    426.67653    39.385103      39.2387      23.5726 
   94200    237.73769   -364.83838    216156.16   -20193.231    1505.8832   -21699.114   -889.91427    426.97013     39.38562     39.23721    23.544239 
   94400     229.6338   -448.48905    216156.16   -20235.743    1454.5513   -21690.294   -1238.4595    427.34821    39.384487    39.236443    23.558929 
   94600    228.22828   -455.57998    216156.16   -20225.318    1445.6485   -21670.966   -1294.7236    427.15853    39.384302    39.237523    23.587051 
   94800    238.33873   -297.58448    216156.16   -20237.073    1509.6903   -21746.764   -629.62961    427.68521    39.385657    39.236833    23.612471 
   95000    233.84388   -420.29375    216156.16   -20322.649    1481.2189   -21803.868   -1114.1952    428.35405     39.38388    39.236361    23.600368 
   95200    229.75224   -344.98678    216156.16   -20274.414    1455.3016   -21729.716   -840.28372    428.90563    39.383505    39.237006    23.610629 
   95400    233.57172   -235.22942    216156.16   -20258.788     1479.495   -21738.283   -314.73529    427.80436    39.386141    39.238137    23.601408 
   95600     239.3413    -424.4834    216156.16   -20230.221    1516.0408   -21746.261    -1183.961    427.10335    39.387243    39.239939    23.612446 
   95800    238.51185   -420.33807    216156.16   -20198.083    1510.7868    -21708.87   -1117.4763     426.7381    39.389403    39.241177    23.628295 
   96000    240.96431   -360.60877    216156.16   -20159.407    1526.3213   -21685.728   -862.32294    427.62269    39.389585    39.241017    23.626271 
   96200    239.44184   -258.10111    216156.16   -20084.266    1516.6776   -21600.943   -478.45718    428.39412    39.390348    39.239452    23.614707 
   96400     241.1915   -230.99105    216156.16   -20153.505    1527.7604   -21681.266    -343.9766    429.26481    39.392302    39.238496    23.607061 
   96600    227.17265   -460.79845    216156.16   -20220.309    1438.9619   -21659.271   -1285.7726    432.20656    39.392152    39.240451    23.616933 
   96800    236.69353   -256.65509    216156.16    -20169.27    1499.2692   -21668.539   -448.66423    431.13772    39.393281    39.239877    23.609777 
   97000    228.04228     -405.212    216156.16   -20213.798    1444.4703   -21658.268    -1066.523     433.3869    39.392531    39.240416    23.581579 
   97200    229.01622   -303.52492    216156.16   -20227.554    1450.6394   -21678.193   -592.58611    433.83627      39.3929    39.240613    23.592796 
   97400    237.01637   -357.23882    216156.16   -20180.269    1501.3142   -21681.583   -818.02023    436.11251     39.39245    39.241105    23.610634 
   97600    232.76627   -256.90322    216156.16   -20126.425     1474.393   -21600.818   -447.74987    434.76046    39.392879    39.240348    23.607477 
   97800    235.27238   -508.80679    216156.16    -20125.15    1490.2673   -21615.417   -1491.8895    434.90405    39.393487     39.24035    23.622083 
   98000    223.31689   -403.31729    216156.16   -20170.538    1414.5386   -21585.077   -1067.5625    437.24725    39.393691     39.24318    23.631866 
   98200    232.81162   -584.12397    216156.16   -20176.317    1474.6803   -21650.997   -1803.4235    438.24808    39.393142    39.244645    23.623053 
   98400     231.4347   -244.43608    216156.16    -20124.37    1465.9586   -21590.328   -368.61683    437.46298    39.391486    39.246222    23.629658 
   98600    237.47975   -472.56254    216156.16   -20113.746    1504.2493   -21617.995   -1341.9599      436.561    39.390131    39.247254    23.631363 
   98800    237.17056   -278.23963    216156.16    -20109.64    1502.2908   -21611.931   -560.19581    438.50625    39.391063    39.248994    23.623353 
   99000    231.03911   -293.89972    216156.16   -20175.118    1463.4528   -21638.571    -628.4722    438.32975    39.391181    39.247843    23.640831 
   99200    236.94996   -364.12889    216156.16   -20129.039    1500.8935   -21629.933   -845.65321    439.35364    39.392824    39.247272    23.655659 
   99400    230.44076   -498.63289    216156.16   -20103.344    1459.6628   -21563.007   -1437.5492     440.6934    39.392601    39.246099    23.665818 
   99600    233.63924   -516.72111    216156.16   -20126.731    1479.9226   -21606.654   -1564.8583    441.80956    39.393881    39.244275    23.663562 
   99800    234.12604   -282.33574    216156.16   -20145.917    1483.0062   -21628.923   -586.51526    441.65198    39.394715    39.244682    23.666425 
  100000    237.50621   -266.59829    216156.16   -20114.623    1504.4169    -21619.04   -499.07736    442.40407    39.395554    39.243969    23.637357 
  100200    234.15828   -249.78342    216156.16   -20186.571    1483.2104   -21669.781   -502.98909    442.01775    39.393192    39.241897    23.615492 
  100400    237.04985   -335.26422    216156.16   -20133.637    1501.5262   -21635.163   -761.36303    442.63156    39.393227    39.239894    23.603653 
  100600    237.20664     -472.965    216156.16   -20130.242    1502.5194   -21632.761   -1360.5452    445.85393    39.390857    39.236916    23.589231 
  100800    233.51326   -480.11102    216156.16   -20190.736    1479.1247   -21669.861   -1412.4766    447.16941    39.392402     39.23474    23.604944 
[...]
 3975800    228.40241   -292.95912    216156.16   -22054.953    1446.7514   -23501.705   -532.63937    6221.1029    38.766432    39.207455    24.002362 
 3976000    219.69928   -411.39822    216156.16   -22087.151    1391.6238   -23478.775   -1068.0718    6223.4613    38.765814    39.207229    23.999319 
 3976200    223.35964   -469.17047    216156.16   -22093.542    1414.8094   -23508.351   -1257.7487    6224.7661    38.765351    39.206538    23.995593 
 3976400    221.84005   -405.45959    216156.16    -22092.49     1405.184   -23497.674   -1021.6104    6224.3157    38.765366    39.205923    24.001031 
 3976600    221.45957   -274.37941    216156.16   -22086.022    1402.7739   -23488.795   -447.29757    6223.6971    38.764989    39.206415    23.994464 
 3976800    221.16774   -293.09201    216156.16   -22045.128    1400.9254   -23446.053   -533.86642    6221.6162    38.764318    39.205505    24.000931 
 3977000    226.30597   -440.02308    216156.16   -22136.423    1433.4721   -23569.895   -1185.6164    6223.5082    38.764446     39.20586    24.001182 
 3977200     223.3737   -475.98039    216156.16   -22046.588    1414.8985   -23461.487   -1336.4486    6224.0726    38.764452    39.205767    24.000393 
 3977400    224.58923   -436.13718    216156.16   -22054.862    1422.5979    -23477.46   -1139.3085    6223.9954    38.763431    39.206284    23.999084 
 3977600     221.6405     -399.539    216156.16   -22075.289      1403.92   -23479.209    -1044.827    6224.3528    38.762163     39.20646    24.003731 
 3977800    222.70869   -375.44024    216156.16   -22088.998    1410.6861   -23499.684   -908.60894    6223.9637    38.762289    39.206588    24.010916 
 3978000    224.28125   -376.17862    216156.16   -22124.406    1420.6471   -23545.053   -901.70203    6222.1984    38.761727      39.2074    24.010377 
 3978200      222.642   -344.99006    216156.16   -22055.495    1410.2637   -23465.759   -768.18316    6224.7915    38.762042      39.2076    23.999456 
 3978400    218.44525   -464.52246    216156.16   -22110.946    1383.6806   -23494.627   -1281.4626    6224.1744    38.760462    39.207627     23.99254 
 3978600    223.28414    -409.0302    216156.16   -22062.322    1414.3312   -23476.654   -1056.5511    6224.6205    38.760585    39.207776    23.996872 
 3978800    229.36119   -466.15323    216156.16   -22042.244    1452.8246   -23495.069   -1298.7378    6224.0088     38.75999    39.207916    23.997848 
 3979000    227.29707   -348.11662    216156.16   -22065.982      1439.75   -23505.732   -795.79928    6223.8067    38.758758    39.208469    23.994335 
 3979200    224.05076   -373.80257    216156.16   -22097.951    1419.1871   -23517.138    -892.3637    6222.4718     38.75704    39.208509    23.987433 
 3979400    224.90348   -295.53347    216156.16   -22050.297    1424.5884   -23474.885    -516.4024    6223.6978    38.755675    39.208337    23.988948 
 3979600    222.61802   -461.93931    216156.16   -22067.207    1410.1118   -23477.318   -1272.4351    6224.0234     38.75406    39.208709    23.986005 
 3979800    235.35922   -533.36336    216156.16   -22068.919    1490.8174   -23559.736    -1569.639    6225.6369     38.75381    39.208603     23.98486 
 3980000    222.12182   -484.67272    216156.16   -22076.853    1406.9688   -23483.822   -1306.4952    6224.5134    38.752867    39.209059    23.996907 
 3980200    223.64082   -415.87517    216156.16   -22071.352    1416.5904   -23487.943   -1101.7107    6225.1149    38.752046    39.210059    23.986621 
 3980400    222.48581   -432.28571    216156.16   -22034.521    1409.2744   -23443.795   -1160.6588    6223.7544    38.751034    39.210395    23.985741 
 3980600    231.25479    -390.5087    216156.16   -21975.137     1464.819   -23439.956   -966.51827    6223.0933    38.750336    39.210283    23.978426 
 3980800     228.9641   -438.89919    216156.16   -22015.019    1450.3093   -23465.328    -1154.676    6224.8903    38.750033    39.210364    23.985352 
 3981000    223.68634   -430.33481    216156.16   -22032.538    1416.8788   -23449.416   -1119.9141    6223.4305    38.751039    39.209809    23.987508 
 3981200    224.15368   -399.70519    216156.16    -22044.22     1419.839   -23464.059   -1035.1644    6223.0945    38.750751      39.2096    23.991545 
 3981400    226.74629   -438.38186    216156.16   -22018.614    1436.2612   -23454.876   -1232.8967    6225.5867     38.75054    39.208682    23.993064 
 3981600     223.8065   -395.74645    216156.16    -22070.03    1417.6399    -23487.67   -956.30035    6224.8752    38.751363    39.208298    23.990149 
 3981800    221.30727   -414.48919    216156.16   -22040.601    1401.8092   -23442.411   -1094.4241    6225.0271    38.750249    39.207166    23.995094 
 3982000    223.06975   -337.24996    216156.16   -22095.868    1412.9732   -23508.841    -728.8357    6221.6567    38.749494    39.205708    23.995105 
 3982200    221.84436   -444.01067    216156.16    -22144.34    1405.2113   -23549.551   -1194.7519    6224.7954    38.748561    39.206108    23.995043 
 3982400     224.4467   -455.00166    216156.16   -22064.327    1421.6951   -23486.022    -1262.552    6224.9167    38.747887    39.205082    23.997078 
 3982600    220.84879   -473.04309    216156.16   -22077.111    1398.9051   -23476.016   -1262.6376    6224.1086     38.74739    39.204659     24.00337 
 3982800    230.58462   -438.48021    216156.16   -22020.638     1460.574   -23481.212   -1162.9899    6224.3834    38.746145      39.2043    24.000288 
 3983000    229.84527    -338.9969    216156.16   -21999.534    1455.8908   -23455.425   -743.39461     6223.374    38.745203    39.204061    23.997497 
 3983200    224.10263   -363.71734    216156.16   -22020.149    1419.5157   -23439.665   -877.94329    6224.7045    38.744898     39.20386    24.006623 
 3983400    229.50007   -433.29143    216156.16   -21975.484    1453.7043   -23429.188   -1106.9476    6223.2205    38.743856    39.202683    24.008818 
 3983600    223.62434   -537.62777    216156.16   -22049.941    1416.4861   -23466.427   -1556.7151    6223.6503    38.743472    39.202667    24.002592 
 3983800    222.90075   -445.37042    216156.16     -22039.2    1411.9027   -23451.103   -1173.8517    6224.2491     38.74316    39.202428    23.990541 
 3984000    227.46625   -459.64227    216156.16   -22042.387    1440.8216   -23483.209   -1260.8083    6223.2303    38.742384    39.202009    23.999726 
 3984200    228.08715   -324.91019    216156.16   -22027.536    1444.7545   -23472.291   -714.14511    6222.1569    38.742914    39.202151    23.993175 
 3984400     216.9475   -408.69771    216156.16   -22079.942    1374.1935   -23454.135   -1061.9047    6222.0099    38.742836    39.202369     23.98824 
 3984600    223.60076    -456.9848    216156.16   -22078.115    1416.3367   -23494.452   -1221.4173    6223.1065    38.741519    39.202166    23.987022 
 3984800    222.65361    -394.1472    216156.16   -22051.389    1410.3373   -23461.726   -956.77393    6222.3976    38.740999    39.201779     23.98698 
 3985000    225.50952    -424.1308    216156.16   -22091.132    1428.4272    -23519.56   -1149.0857    6222.7719    38.740465    39.201694    23.998094 
 3985200    226.34759   -274.98175    216156.16   -22048.705    1433.7357   -23482.441   -454.67773    6222.7381    38.740581    39.202463    23.994686 
 3985400    225.59977   -375.07928    216156.16   -22068.029    1428.9989   -23497.028   -921.40265     6223.521     38.74168    39.202873    23.997356 
 3985600    227.92545   -531.72945    216156.16   -22019.463    1443.7303   -23463.193   -1601.1767    6222.5893    38.741775    39.203679    23.995071 
 3985800    221.80478   -557.65713    216156.16   -22042.207    1404.9606   -23447.167   -1724.8553    6224.0883    38.741926    39.203923    24.004095 
 3986000     226.2938   -411.34473    216156.16   -21967.463     1433.395   -23400.858    -1032.205    6222.4556    38.740731    39.203911    24.003125 
 3986200    233.21088   -242.51621    216156.16   -21999.989    1477.2094   -23477.198   -274.35085     6221.725    38.741049    39.203514    24.005223 
 3986400    222.06707   -346.89588    216156.16    -22096.79     1406.622   -23503.412   -814.19506    6223.6703    38.740688    39.203483    24.007616 
 3986600    226.17546   -476.55049    216156.16    -22071.68    1432.6454   -23504.326   -1344.0308    6223.6076    38.741459      39.2039    24.006193 
 3986800    225.74259   -508.61347    216156.16   -22067.904    1429.9035   -23497.807   -1449.1805    6223.9565    38.741237    39.204329    24.008788 
 3987000    220.74479   -358.01561    216156.16   -22040.097    1398.2464   -23438.343   -856.52609    6223.9228    38.741941    39.204895    24.011396 
 3987200    221.25814   -325.19925    216156.16   -22130.836     1401.498   -23532.334   -689.73137    6222.6446    38.740264    39.205003    24.010132 
 3987400    228.22257   -324.72231    216156.16   -22091.928    1445.6123    -23537.54   -672.72689    6223.4432    38.740457    39.205864    24.007824 
 3987600    227.97033    -351.6168    216156.16   -22027.112    1444.0145   -23471.126   -781.40824    6222.4756    38.739816     39.20668    24.008647 
 3987800    223.49484   -462.57682    216156.16   -22077.686    1415.6658   -23493.351   -1270.8586    6224.6783     38.73989    39.207088    24.010094 
 3988000    224.14168   -456.81519    216156.16   -22039.509     1419.763   -23459.272   -1241.1321    6225.8767    38.739796     39.20706    24.011743 
 3988200    224.07327   -317.52772    216156.16   -22076.186    1419.3297   -23495.516   -606.06184    6223.6204    38.740058    39.206758    24.014162 
 3988400    222.70156   -398.01464    216156.16   -22046.212     1410.641   -23456.853   -989.09831    6221.4224    38.739657    39.206803    24.017079 
 3988600    220.70572   -390.97895    216156.16   -22106.177    1397.9989   -23504.176   -929.22419    6222.7646    38.739432    39.206924    24.014473 
 3988800    226.71848   -323.00532    216156.16   -22106.517    1436.0851   -23542.603   -714.54353    6223.0768    38.738851     39.20793     24.01501 
 3989000    225.76122   -376.60235    216156.16   -22031.112    1430.0216   -23461.133   -904.79088    6222.8257    38.738573     39.20741    24.022156 
 3989200    224.60291   -388.57074    216156.16   -22056.969    1422.6846   -23479.654    -983.1218    6222.6889    38.737511    39.208044    24.020384 
 3989400    222.18231   -401.20611    216156.16   -22095.168    1407.3519    -23502.52   -1028.3016    6222.2481    38.737167    39.209125    24.018542 
 3989600     223.4423    -434.1268    216156.16   -22009.964     1415.333   -23425.297   -1139.8732    6223.7793    38.737443    39.209911    24.022073 
 3989800    224.53836   -457.83368    216156.16   -22043.676    1422.2756   -23465.951   -1242.3534    6222.6521    38.737339    39.209816    24.018618 
 3990000    221.30693    -432.2532    216156.16   -22091.218    1401.8071   -23493.026   -1141.5685    6223.3846    38.737531    39.210911     24.01465 
 3990200    225.76847   -471.28171    216156.16   -22094.057    1430.0675   -23524.124   -1298.4189    6223.1024    38.737804    39.210735    24.021014 
 3990400    219.90101   -387.43396    216156.16   -22058.958    1392.9017    -23451.86   -970.25578     6222.652    38.736701    39.209883     24.02167 
 3990600    218.92283   -413.89921    216156.16   -22090.492    1386.7056   -23477.198   -1077.7997    6223.6715    38.736594    39.211104    24.023388 
 3990800    225.89302   -383.58655    216156.16   -22065.616    1430.8564   -23496.473   -943.60715    6225.0466    38.736037    39.210096     24.02479 
 3991000    230.06049   -463.79777    216156.16   -22034.362     1457.254   -23491.616    -1270.657    6223.5761    38.735927    39.208708     24.02648 
 3991200    231.04609   -434.30113    216156.16   -22017.322     1463.497   -23480.819   -1152.5052    6221.8067    38.736789     39.20819    24.024545 
 3991400    234.75646   -352.05665    216156.16   -22006.771    1486.9994    -23493.77   -832.37599    6222.2469     38.73684    39.207811      24.0208 
 3991600    223.58333   -310.35274    216156.16   -22055.431    1416.2263   -23471.658   -631.09966    6222.6706    38.736067    39.207924     24.02506 
 3991800    224.55609   -401.32424    216156.16   -22128.225     1422.388   -23550.613   -1010.6469    6222.5091    38.735837     39.20767     24.03368 
 3992000    223.83864   -500.82528    216156.16   -22077.304    1417.8435   -23495.148   -1436.9674    6223.7337    38.736694    39.206434    24.035687 
 3992200     223.5112   -467.55088    216156.16   -22065.223    1415.7694   -23480.992   -1256.5525    6222.4936    38.736628    39.204896    24.031423 
 3992400    219.78802   -368.05417    216156.16   -22071.609     1392.186   -23463.795   -880.54068    6223.5637    38.737103    39.204094    24.030764 
 3992600    226.67878   -259.57636    216156.16   -22077.682    1435.8336   -23513.515   -432.85015    6223.5542    38.737692    39.203512    24.038947 
 3992800    224.80681   -438.15197    216156.16    -22071.64    1423.9761   -23495.616   -1154.6238    6223.3253    38.737179    39.203005    24.027267 
 3993000    221.59542   -519.41392    216156.16   -22168.518    1403.6344   -23572.153   -1504.5469    6225.2385    38.736248    39.203121     24.03177 
 3993200    223.98605   -428.27368    216156.16    -22076.24    1418.7772   -23495.017   -1129.7981    6223.9401    38.736158    39.203008    24.024706 
 3993400    231.79238   -280.23023    216156.16   -22037.349    1468.2242   -23505.573   -512.72443    6222.4269    38.735762    39.203308    24.020722 
 3993600    227.00281   -370.64908    216156.16    -22054.96     1437.886   -23492.846   -903.80892     6223.893    38.736757    39.202212    24.023975 
 3993800    222.08755   -436.46022    216156.16   -22068.815    1406.7517   -23475.567   -1171.7233    6225.4969    38.736801    39.201939    24.022319 
 3994000    218.74224   -522.05607    216156.16   -22076.701    1385.5618   -23462.262   -1549.7498    6225.3506    38.737435    39.202786    24.027322 
 3994200     222.9523   -372.24659    216156.16   -22104.214    1412.2292   -23516.443   -889.03642    6224.5787    38.737636    39.203425    24.022523 
 3994400    225.10848   -353.30396    216156.16   -22073.319    1425.8869   -23499.206   -777.69915    6225.1569    38.737799    39.203434    24.022752 
 3994600    223.07697   -309.49989    216156.16   -22138.942    1413.0189   -23551.961   -626.83425    6223.9346    38.737896    39.203613    24.032823 
 3994800    223.57673   -360.84164    216156.16    -22038.08    1416.1845   -23454.264   -830.19978    6223.3711    38.737954    39.202457    24.033077 
 3995000      223.063   -535.50767    216156.16    -22057.17    1412.9304   -23470.101   -1553.3699    6224.6195    38.737501    39.201713    24.032287 
 3995200    224.16744   -488.52206    216156.16   -22111.795    1419.9262   -23531.721   -1386.1945    6224.5106    38.738069    39.201786    24.031469 
 3995400    221.99816   -376.86663    216156.16   -22058.766    1406.1855   -23464.952   -955.78793    6225.4362    38.738002    39.201942     24.03221 
 3995600    236.19733   -270.06421    216156.16   -22002.478    1496.1262   -23498.605   -466.15834     6224.233    38.737835    39.203425    24.024562 
 3995800    223.11094   -475.31892    216156.16   -22026.845    1413.2341   -23440.079   -1344.5019    6223.5037     38.73687    39.203464    24.030327 
 3996000    231.08125   -566.21387    216156.16   -21965.361    1463.7198   -23429.081   -1718.0924    6227.3762    38.736943     39.20335    24.024895 
 3996200    224.11301    -494.8576    216156.16   -22045.307    1419.5814   -23464.888   -1421.5536    6226.2506     38.73769    39.202318    24.023502 
 3996400    231.90781   -326.54032    216156.16    -22085.83    1468.9554   -23554.785   -715.98317    6222.4143    38.737693    39.202453    24.017873 
 3996600    227.67438   -346.08649    216156.16   -22065.567    1442.1399   -23507.707   -797.11567    6222.3429    38.737513    39.201727    24.021354 
 3996800    223.99335   -339.26232    216156.16   -22103.261    1418.8234   -23522.085   -748.87891    6224.8599    38.738264    39.201574    24.022632 
 3997000    232.46931   -484.52364    216156.16   -22000.733    1472.5121   -23473.245   -1367.9744    6222.4049    38.738561    39.202188     24.02833 
 3997200    232.39777   -491.44177    216156.16   -22052.835    1472.0589   -23524.894   -1381.8464    6223.9993    38.738122     39.20224    24.024078 
 3997400    224.01118   -384.35168    216156.16   -22109.545    1418.9364   -23528.481   -948.92866    6223.2977    38.738894    39.200929    24.028758 
 3997600    226.13306   -328.85979    216156.16   -22033.698    1432.3768   -23466.075   -718.90449    6221.7544     38.73892    39.199999    24.029061 
 3997800    217.84715   -449.26951    216156.16   -22162.125     1379.892   -23542.017   -1169.7089    6224.2598    38.738162     39.19931    24.032186 
 3998000    223.46061   -394.59003    216156.16   -22096.421     1415.449    -23511.87   -932.60811    6223.7707    38.737586    39.198757    24.030775 
 3998200    221.49207   -414.56937    216156.16   -22140.934    1402.9798   -23543.914    -1052.779    6224.1298    38.736763    39.197666     24.02884 
 3998400    232.06006   -380.80329    216156.16    -22008.36    1469.9198    -23478.28   -918.77325    6224.4072    38.737666     39.19724     24.02863 
 3998600    220.87512     -379.517    216156.16   -22100.187    1399.0719   -23499.259   -921.51389     6225.068     38.73737    39.197047    24.030126 
 3998800    225.81782   -397.27464    216156.16   -22097.841    1430.3801   -23528.221   -979.85393    6223.8195    38.736105    39.197353    24.034906 
 3999000    228.39348   -358.62004    216156.16   -22040.234    1446.6949   -23486.929   -840.23795    6224.8407     38.73524    39.197413     24.03591 
 3999200     229.1627   -380.39886    216156.16     -22101.5    1451.5673   -23553.068   -914.61809    6224.8934    38.735902    39.196157    24.030775 
 3999400     221.1405   -478.87665    216156.16   -22133.401    1400.7529   -23534.154    -1387.734    6223.6942    38.734699    39.195983    24.030862 
 3999600    217.24246   -422.37974    216156.16   -22132.543    1376.0618   -23508.605   -1146.3466    6226.8707    38.734867    39.194578    24.025352 
 3999800    228.93738   -358.70028    216156.16   -22047.363      1450.14   -23497.503   -845.46906    6223.6936     38.73424    39.193423    24.033623 
 4000000    227.78348   -434.51066    216156.16       -22047     1442.831   -23489.831   -1154.5006    6224.6856    38.734215    39.192449    24.029446 
Loop time of 6282.89 on 120 procs for 4000000 steps with 9422 atoms

Performance: 550.066 ns/day, 0.044 hours/ns, 636.650 timesteps/s
98.1% CPU use with 120 MPI tasks x no OpenMP threads

MPI task timing breakdown:
Section |  min time  |  avg time  |  max time  |%varavg| %total
---------------------------------------------------------------
Pair    | 0.31648    | 1647.7     | 4786.1     |3882.7 | 26.23
Neigh   | 2.823      | 98.591     | 295.64     |1043.6 |  1.57
Comm    | 385.37     | 2378.1     | 4893.3     |3058.1 | 37.85
Output  | 70.705     | 70.777     | 72.504     |   1.9 |  1.13
Modify  | 338.11     | 2041.4     | 5775.9     |4926.5 | 32.49
Other   |            | 46.28      |            |       |  0.74

Nlocal:    78.5167 ave 205 max 0 min
Histogram: 32 31 15 2 0 0 0 2 16 22
Nghost:    691.775 ave 902 max 528 min
Histogram: 32 0 13 4 17 14 9 10 10 11
Neighs:    0 ave 0 max 0 min
Histogram: 120 0 0 0 0 0 0 0 0 0
FullNghs:  7944.75 ave 24909 max 0 min
Histogram: 66 14 0 0 0 0 0 8 16 16

Total # of neighbors = 953370
Ave neighs/atom = 101.186
Neighbor list builds = 428475
Dangerous builds = 0
write_data 		${DIR}/data.${NAME}_run
write_data 		run_14/data.${NAME}_run
write_data 		run_14/data.ibeam_cooling_14_run
Total wall time: 1:44:59
