
### Dimensions ###
variable Z_G equal 10.062000000000001
variable Z_W equal 23.803019087

variable	XDIM string 78.752
variable 	YDIM string 80.86108639999017


### IMPORT ATOMS ###
read_data ../Box_Setup/data.Ibeam_240K
  orthogonal box = (0 0 0) to (78.752 80.8611 33.9443)
  5 by 8 by 3 MPI processor grid
  reading atoms ...
  9422 atoms
  reading velocities ...
  9422 velocities
group water type 2
2126 atoms in group water
group graphite type 1
7296 atoms in group graphite


# Define potential
#
pair_style          sw
pair_coeff * * MLC_e.sw C mW

# Add velocity/set timestep
#

fix		1 graphite setforce 0.0 0.0 0.0
velocity 	graphite set 0.0 0.0 0.0
velocity            water create ${START_TEMP} ${SEED} rot yes dist gaussian
velocity            water create 235 ${SEED} rot yes dist gaussian
velocity            water create 235 29604 rot yes dist gaussian
timestep            5.0

# Define output
#
compute 1 water msd
compute 2 water temp


thermo	            100
thermo_style custom step c_2 press vol etotal ke pe c_1[4] density

# Neighbor lists
#
neigh_modify        delay 0 every 1 check yes


# Set fixes
#
fix                 2 water momentum 10 linear 1 1 1 rescale
fix                 3 all nve
fix                 4 water temp/csvr ${START_TEMP} ${START_TEMP} 500.0 928347
fix                 4 water temp/csvr 235 ${START_TEMP} 500.0 928347
fix                 4 water temp/csvr 235 235 500.0 928347

# Run 0.05 ns equilibration
#
dump                1 all custom 100 ${DIR}/eq.${NAME}.dump id type x y z vx vy vz
dump                1 all custom 100 run_14/eq.${NAME}.dump id type x y z vx vy vz
dump                1 all custom 100 run_14/eq.ibeam_cooling_14.dump id type x y z vx vy vz
run                 10000
Neighbor list info ...
  update every 1 steps, delay 0 steps, check yes
  max neighbors/atom: 2000, page size: 100000
  master list distance cutoff = 6.67472
  ghost atom cutoff = 6.67472
  binsize = 3.33736, bins = 24 25 11
  1 neighbor lists, perpetual/occasional/extra = 1 0 0
  (1) pair sw, perpetual
      attributes: full, newton on
      pair build: full/bin/atomonly
      stencil: full/bin/3d
      bin: standard
Per MPI rank memory allocation (min/avg/max) = 3.374 | 4.228 | 4.744 Mbytes
Step c_2 Press Volume TotEng KinEng PotEng c_1[4] Density 
       0          235   -349.74665    216156.16   -20108.674     1488.542   -21597.216            0   0.96737059 
     100    231.82176   -430.52221    216156.16   -20132.211    1468.4103   -21600.621   0.88036107   0.96737059 
     200    230.54931   -519.55555    216156.16   -20170.725    1460.3504   -21631.075    1.3136421   0.96737059 
     300    231.12462   -153.88656    216156.16   -20175.417    1463.9945   -21639.412    1.7730116   0.96737059 
     400    233.79164   -278.27516    216156.16   -20187.839     1480.888   -21668.727    2.1256369   0.96737059 
     500    236.33701    -469.3421    216156.16   -20182.473    1497.0109   -21679.484    2.4481892   0.96737059 
     600    236.69146   -227.45853    216156.16   -20121.211    1499.2561   -21620.467    2.7744603   0.96737059 
     700    240.79188   -272.52403    216156.16   -20140.855    1525.2291   -21666.085    3.1550969   0.96737059 
     800    241.77005    -420.8146    216156.16   -20127.212     1531.425   -21658.637    3.5084916   0.96737059 
     900    239.99602   -322.00572    216156.16    -20151.32    1520.1879   -21671.508    3.8684581   0.96737059 
    1000    231.06286   -367.64534    216156.16   -20208.674    1463.6033   -21672.277    4.4008796   0.96737059 
    1100     235.8486   -287.92729    216156.16   -20183.933    1493.9172   -21677.851    4.8176356   0.96737059 
    1200    239.61903   -470.85234    216156.16   -20183.774       1517.8   -21701.574    5.2052002   0.96737059 
    1300    230.70108   -202.77509    216156.16   -20130.584    1461.3117   -21591.896    5.4713343   0.96737059 
    1400    240.78183   -367.48225    216156.16   -20155.599    1525.1654   -21680.764    5.7588969   0.96737059 
    1500    233.30108   -383.57802    216156.16   -20193.708    1477.7807   -21671.489    6.1845007   0.96737059 
    1600    235.91207   -392.31064    216156.16   -20171.534    1494.3193   -21665.853    6.5927415   0.96737059 
    1700    245.89088   -434.11632    216156.16   -20192.785    1557.5272   -21750.312     6.910304   0.96737059 
    1800    238.25973   -393.60514    216156.16   -20177.505    1509.1898   -21686.695    7.1219571   0.96737059 
    1900    244.91633   -276.53808    216156.16   -20142.426    1551.3543    -21693.78    7.3789639   0.96737059 
    2000    245.19265   -263.20286    216156.16   -20119.417    1553.1045   -21672.522     7.839618   0.96737059 
    2100    235.25439   -403.78201    216156.16   -20213.788    1490.1534   -21703.941    8.2058464   0.96737059 
    2200    237.59629   -567.27067    216156.16   -20174.109    1504.9875   -21679.097    8.4855488   0.96737059 
    2300    238.29762   -315.15298    216156.16   -20159.114    1509.4299   -21668.544    8.6789984   0.96737059 
    2400    233.25645   -352.17264    216156.16   -20170.977     1477.498   -21648.475    8.9981981   0.96737059 
    2500    233.95683   -259.30169    216156.16   -20188.005    1481.9344   -21669.939     9.190272   0.96737059 
    2600     233.3629    -590.3275    216156.16   -20214.986    1478.1722   -21693.159    9.4218495   0.96737059 
    2700    236.00937   -298.48912    216156.16   -20201.262    1494.9356   -21696.197    9.7269264   0.96737059 
    2800    243.64856   -377.20938    216156.16     -20144.9    1543.3239   -21688.223    9.9811569   0.96737059 
    2900    245.44973   -550.20085    216156.16   -20161.076    1554.7329   -21715.809    10.303468   0.96737059 
    3000    239.76122   -414.96247    216156.16   -20169.833    1518.7006   -21688.534     10.65377   0.96737059 
    3100    236.29937   -360.47006    216156.16   -20163.366    1496.7725   -21660.138    11.070744   0.96737059 
    3200    237.78912    -193.2867    216156.16   -20215.615    1506.2089   -21721.824    11.299021   0.96737059 
    3300    230.62945    -348.0008    216156.16   -20293.599     1460.858   -21754.457    11.653218   0.96737059 
    3400    240.13619   -455.71588    216156.16   -20239.842    1521.0758   -21760.918    11.720876   0.96737059 
    3500     230.8954   -391.05471    216156.16   -20236.266    1462.5426   -21698.809     12.19726   0.96737059 
    3600    234.95112   -383.11829    216156.16    -20226.01    1488.2324   -21714.243    12.505967   0.96737059 
    3700    239.55297   -422.45955    216156.16   -20203.273    1517.3815   -21720.654    12.839807   0.96737059 
    3800    235.75029    -379.7866    216156.16   -20204.176    1493.2945    -21697.47     13.29806   0.96737059 
    3900    229.10618   -231.98244    216156.16   -20210.411    1451.2092   -21661.621    13.656906   0.96737059 
    4000    237.59126   -418.78754    216156.16   -20228.458    1504.9556   -21733.414    14.013716   0.96737059 
    4100    241.12332   -293.99069    216156.16   -20212.378    1527.3285   -21739.707    14.482904   0.96737059 
    4200    236.55692   -289.68752    216156.16   -20203.555    1498.4039   -21701.959    15.267217   0.96737059 
    4300    227.43133   -226.47013    216156.16   -20250.272    1440.6004   -21690.872    15.774597   0.96737059 
    4400    233.84397   -396.77493    216156.16   -20201.003    1481.2195   -21682.223    16.375733   0.96737059 
    4500    233.64093   -366.97225    216156.16   -20238.223    1479.9334   -21718.156    16.742279   0.96737059 
    4600    229.63704   -168.05393    216156.16   -20266.887    1454.5719   -21721.459    16.922237   0.96737059 
    4700    230.60215   -380.68279    216156.16   -20209.761    1460.6851   -21670.446    17.310611   0.96737059 
    4800    234.34529   -443.19694    216156.16   -20171.751     1484.395   -21656.146    17.689281   0.96737059 
    4900    240.37046    -380.0674    216156.16   -20127.456    1522.5597   -21650.016    18.241277   0.96737059 
    5000    236.04543   -486.87842    216156.16   -20187.091     1495.164   -21682.255    18.406069   0.96737059 
    5100    233.25754   -178.13012    216156.16   -20157.689    1477.5049   -21635.194    18.683474   0.96737059 
    5200    232.92391   -393.89339    216156.16    -20186.65    1475.3916   -21662.042    18.893028   0.96737059 
    5300    230.45131   -441.37954    216156.16    -20247.85    1459.7296    -21707.58    19.132768   0.96737059 
    5400    231.30368   -421.17981    216156.16   -20231.286    1465.1287   -21696.415    19.033072   0.96737059 
    5500    229.39995   -417.70186    216156.16   -20230.507    1453.0701   -21683.577    19.123011   0.96737059 
    5600    232.54568   -319.73268    216156.16    -20241.57    1472.9958   -21714.566    19.515118   0.96737059 
    5700    228.26443   -342.66887    216156.16   -20217.082    1445.8774   -21662.959    20.017359   0.96737059 
    5800    232.14486    -530.1522    216156.16   -20186.678    1470.4569   -21657.135    20.373574   0.96737059 
    5900    234.24657   -416.29373    216156.16   -20211.596    1483.7696   -21695.365    20.640316   0.96737059 
    6000    228.51068   -397.43303    216156.16   -20222.182    1447.4372   -21669.619    20.747611   0.96737059 
    6100    231.73643   -306.90419    216156.16   -20248.921    1467.8698   -21716.791    21.065982   0.96737059 
    6200    235.64211   -502.23924    216156.16   -20247.152    1492.6093   -21739.761    21.251352   0.96737059 
    6300    232.34368    -271.6891    216156.16   -20187.793    1471.7163    -21659.51      21.4447   0.96737059 
    6400    231.58084   -429.96436    216156.16   -20219.613    1466.8843   -21686.497    21.609624   0.96737059 
    6500     227.8892   -443.52745    216156.16    -20232.65    1443.5006    -21676.15     21.93857   0.96737059 
    6600    232.69433    -258.1042    216156.16   -20242.868    1473.9374   -21716.805    22.202141   0.96737059 
    6700    231.02115   -515.10099    216156.16   -20280.595    1463.3391   -21743.934    22.577332   0.96737059 
    6800     234.4334   -493.91434    216156.16   -20260.381     1484.953   -21745.334    22.757545   0.96737059 
    6900    233.52089   -267.72491    216156.16    -20236.82     1479.173   -21715.993    22.879859   0.96737059 
    7000    239.14775   -388.16639    216156.16   -20244.479    1514.8148   -21759.294    23.073506   0.96737059 
    7100      238.874   -439.67809    216156.16   -20268.838    1513.0808   -21781.919    23.463379   0.96737059 
    7200    229.10331   -305.33934    216156.16   -20345.438    1451.1911   -21796.629    23.656126   0.96737059 
    7300    230.43243   -402.33219    216156.16   -20389.369      1459.61   -21848.979    23.911691   0.96737059 
    7400    227.90707   -458.09998    216156.16   -20363.086    1443.6138     -21806.7     23.95945   0.96737059 
    7500    235.87847   -310.35883    216156.16   -20317.741    1494.1064   -21811.847    24.062822   0.96737059 
    7600    239.62454    -396.8312    216156.16   -20286.145    1517.8349    -21803.98    24.287772   0.96737059 
    7700    230.94112   -258.36176    216156.16   -20307.891    1462.8321   -21770.723    24.553222   0.96737059 
    7800    228.96272   -342.34213    216156.16   -20363.233    1450.3006   -21813.533    24.846193   0.96737059 
    7900      237.766   -396.40642    216156.16   -20317.947    1506.0625    -21824.01    24.944138   0.96737059 
    8000    234.87557   -370.89693    216156.16   -20259.589    1487.7539   -21747.343    25.029272   0.96737059 
    8100    236.58321   -387.77145    216156.16   -20233.813    1498.5704   -21732.383    25.645992   0.96737059 
    8200    230.83017   -454.53051    216156.16   -20241.522    1462.1294   -21703.651    26.255363   0.96737059 
    8300    235.85197   -336.51478    216156.16   -20200.539    1493.9386   -21694.477    26.799212   0.96737059 
    8400    239.92003   -491.27592    216156.16   -20179.807    1519.7066   -21699.513    27.469945   0.96737059 
    8500    238.00992   -273.46271    216156.16   -20225.911    1507.6075   -21733.519    27.707592   0.96737059 
    8600    232.88592   -390.68765    216156.16   -20232.651     1475.151   -21707.802    27.867575   0.96737059 
    8700    230.24061   -469.38078    216156.16   -20248.212     1458.395   -21706.607    28.247488   0.96737059 
    8800    236.72218   -265.07159    216156.16   -20259.756    1499.4507   -21759.206    28.080026   0.96737059 
    8900    230.67158    -229.3673    216156.16   -20286.198    1461.1249   -21747.323    28.368477   0.96737059 
    9000    235.80148   -415.55984    216156.16   -20269.602    1493.6188   -21763.221    29.126961   0.96737059 
    9100    236.63114   -166.07199    216156.16   -20290.892     1498.874   -21789.766    29.300629   0.96737059 
    9200    240.51329   -284.17672    216156.16   -20236.029    1523.4644   -21759.493    29.477053   0.96737059 
    9300    227.91315    -233.6437    216156.16   -20305.252    1443.6523   -21748.905    29.483817   0.96737059 
    9400    228.65979   -239.40206    216156.16   -20281.233    1448.3817   -21729.615    29.322607   0.96737059 
    9500    230.49186    -430.4647    216156.16   -20307.831    1459.9864   -21767.817    29.788803   0.96737059 
    9600    230.91492   -456.94811    216156.16   -20307.403    1462.6662   -21770.069    29.864896   0.96737059 
    9700    235.00422   -335.89219    216156.16   -20264.195    1488.5687   -21752.764    30.232229   0.96737059 
    9800    237.45523   -387.08107    216156.16   -20233.587     1504.094   -21737.681    30.427651   0.96737059 
    9900    236.40678   -430.75753    216156.16   -20248.605    1497.4529   -21746.058    30.583159   0.96737059 
   10000    235.72949    -370.9618    216156.16   -20259.829    1493.1628   -21752.992    30.757959   0.96737059 
Loop time of 16.2692 on 120 procs for 10000 steps with 9422 atoms

Performance: 265.533 ns/day, 0.090 hours/ns, 614.660 timesteps/s
98.0% CPU use with 120 MPI tasks x no OpenMP threads

MPI task timing breakdown:
Section |  min time  |  avg time  |  max time  |%varavg| %total
---------------------------------------------------------------
Pair    | 0.00078225 | 4.3284     | 13.48      | 203.0 | 26.60
Neigh   | 0.0037532  | 0.13206    | 0.39561    |  37.8 |  0.81
Comm    | 0.2991     | 6.1168     | 13.475     | 163.7 | 37.60
Output  | 0.17368    | 0.17384    | 0.18051    |   0.1 |  1.07
Modify  | 0.7961     | 5.3984     | 15.668     | 253.9 | 33.18
Other   |            | 0.1196     |            |       |  0.74

Nlocal:    78.5167 ave 211 max 0 min
Histogram: 38 25 15 2 0 0 0 4 16 20
Nghost:    693.883 ave 935 max 528 min
Histogram: 32 3 13 4 24 6 13 7 10 8
Neighs:    0 ave 0 max 0 min
Histogram: 120 0 0 0 0 0 0 0 0 0
FullNghs:  8005.9 ave 25408 max 0 min
Histogram: 68 12 0 0 0 0 0 10 18 12

Total # of neighbors = 960708
Ave neighs/atom = 101.964
Neighbor list builds = 568
Dangerous builds = 0
write_data 	    ${DIR}/data.${NAME}_eq
write_data 	    run_14/data.${NAME}_eq
write_data 	    run_14/data.ibeam_cooling_14_eq

undump              1
unfix               4



################################################
#######         Run Simulation         #########
################################################

reset_timestep      0
timestep	    10.0
log                 ${DIR}/log.run_${NAME}
log                 run_14/log.run_${NAME}
log                 run_14/log.run_ibeam_cooling_14
