

### IMPORT ATOMS ###
read_data ../Box_Setup/data.Ibeam_240K
  orthogonal box = (0 0 0) to (157.504 42.9242 26.8557)
  10 by 5 by 2 MPI processor grid
  reading atoms ...
  9253 atoms
  reading velocities ...
  9253 velocities
group water type 2
1381 atoms in group water
group graphite type 1
7872 atoms in group graphite


# Define potential
#
pair_style          sw
pair_coeff * * MLC_e.sw C mW

# Add velocity/set timestep
#

fix		1 graphite setforce 0.0 0.0 0.0
velocity 	graphite set 0.0 0.0 0.0
velocity            water create ${START_TEMP} ${SEED} rot yes dist gaussian
velocity            water create 240 ${SEED} rot yes dist gaussian
velocity            water create 240 29899 rot yes dist gaussian
timestep            5.0

# Define output
#
compute 1 water msd
compute 2 water temp


thermo	            100
thermo_style custom step c_2 press vol etotal ke pe c_1[4] density

# Neighbor lists
#
neigh_modify        delay 0 every 1 check yes


# Set fixes
#
fix                 2 water momentum 10 linear 1 1 1 rescale
fix                 3 all nve
fix                 4 water temp/csvr ${START_TEMP} ${START_TEMP} 500.0 928347
fix                 4 water temp/csvr 240 ${START_TEMP} 500.0 928347
fix                 4 water temp/csvr 240 240 500.0 928347

# Run 0.05 ns equilibration
#
dump                1 all custom 100 ${DIR}/eq.${NAME}.dump id type x y z vx vy vz
dump                1 all custom 100 run_28/eq.${NAME}.dump id type x y z vx vy vz
dump                1 all custom 100 run_28/eq.ibeam_cooling_28.dump id type x y z vx vy vz
run                 10000
Neighbor list info ...
  update every 1 steps, delay 0 steps, check yes
  max neighbors/atom: 2000, page size: 100000
  master list distance cutoff = 6.67472
  ghost atom cutoff = 6.67472
  binsize = 3.33736, bins = 48 13 9
  1 neighbor lists, perpetual/occasional/extra = 1 0 0
  (1) pair sw, perpetual
      attributes: full, newton on
      pair build: full/bin/atomonly
      stencil: full/bin/3d
      bin: standard
Per MPI rank memory allocation (min/avg/max) = 3.369 | 4.254 | 4.745 Mbytes
Step c_2 Press Volume TotEng KinEng PotEng c_1[4] Density 
       0          240   -344.39513    181563.75    -13284.54    987.24429   -14271.784            0    1.0922001 
     100    241.91512   -395.87988    181563.75   -13246.526    995.12216   -14241.648    0.8752736    1.0922001 
     200    236.08415   -398.49635    181563.75   -13276.347    971.13637   -14247.483    1.3100063    1.0922001 
     300    244.96555   -215.29493    181563.75    -13277.19    1007.6702    -14284.86    1.8615619    1.0922001 
     400    244.49763    -313.2682    181563.75   -13288.783    1005.7454   -14294.529    2.2899392    1.0922001 
     500    246.16809   -460.15835    181563.75   -13297.775    1012.6168   -14310.392    2.7188873    1.0922001 
     600    231.08685   -323.18059    181563.75   -13376.986    950.57989   -14327.565    3.0481547    1.0922001 
     700    228.07709   -425.56019    181563.75   -13363.945    938.19918   -14302.144    3.3669372    1.0922001 
     800    228.36524   -441.05347    181563.75   -13396.504    939.38449   -14335.889    3.8560526    1.0922001 
     900    233.84439   -354.48594    181563.75   -13364.361    961.92308   -14326.284    4.2993488    1.0922001 
    1000    237.55582    -327.0832    181563.75   -13319.751    977.19012   -14296.941    4.6397893    1.0922001 
    1100    240.95829   -351.23106    181563.75   -13331.892    991.18622   -14323.078    4.8590075    1.0922001 
    1200    235.67989   -380.70324    181563.75   -13380.494    969.47345   -14349.968    5.1727232    1.0922001 
    1300    231.08254   -447.87928    181563.75   -13343.478    950.56216    -14294.04    5.4346935    1.0922001 
    1400     242.2752   -375.18591    181563.75   -13292.656    996.60337    -14289.26    5.9714838    1.0922001 
    1500    244.87467   -285.39363    181563.75   -13306.817    1007.2963   -14314.113    6.5173973    1.0922001 
    1600    240.20461   -287.41756    181563.75   -13296.965    988.08595    -14285.05    7.0584181    1.0922001 
    1700    236.82079   -449.62709    181563.75   -13311.763    974.16655    -14285.93    7.3361929    1.0922001 
    1800    233.88276   -454.01828    181563.75   -13313.255    962.08092   -14275.336    7.5109663    1.0922001 
    1900    246.78196   -360.78581    181563.75   -13237.903     1015.142   -14253.045    7.9901004    1.0922001 
    2000    251.62358   -340.34852    181563.75   -13208.031    1035.0581    -14243.09    8.4101026    1.0922001 
    2100    244.42324   -396.21465    181563.75    -13223.85    1005.4394    -14229.29    8.8067686    1.0922001 
    2200    247.24743   -413.95072    181563.75   -13221.539    1017.0567   -14238.595    9.1839438    1.0922001 
    2300    244.50029   -367.35156    181563.75   -13273.174    1005.7563    -14278.93    9.7067454    1.0922001 
    2400    234.67909   -345.04659    181563.75   -13269.759    965.35661   -14235.116    10.096964    1.0922001 
    2500    238.56334    -263.4559    181563.75   -13265.404    981.33456   -14246.739    10.324111    1.0922001 
    2600    237.26653   -191.33127    181563.75   -13301.328    976.00013   -14277.328    10.598659    1.0922001 
    2700    237.20888    -308.9564    181563.75    -13287.98    975.76295   -14263.742    11.008097    1.0922001 
    2800    237.34214   -379.95281    181563.75   -13292.888    976.31115     -14269.2    11.824433    1.0922001 
    2900    238.28692   -473.51781    181563.75   -13329.869     980.1975   -14310.066    12.043123    1.0922001 
    3000    230.32837   -379.03266    181563.75   -13350.108    947.45985   -14297.568    12.403453    1.0922001 
    3100    238.51104   -415.25765    181563.75   -13339.324    981.11942   -14320.444    12.668436    1.0922001 
    3200      234.416   -296.30807    181563.75   -13353.716    964.27438   -14317.991    12.916892    1.0922001 
    3300     235.5861   -234.94531    181563.75   -13307.482    969.08765   -14276.569    13.084653    1.0922001 
    3400    233.63724   -368.36865    181563.75   -13325.155    961.07097   -14286.226    13.176221    1.0922001 
    3500    238.50392   -528.38873    181563.75   -13326.985    981.09015   -14308.075    13.607675    1.0922001 
    3600    241.73286    -503.2199    181563.75   -13312.088    994.37244   -14306.461    14.220039    1.0922001 
    3700    226.31915   -453.32681    181563.75   -13344.382    930.96785   -14275.349    14.785573    1.0922001 
    3800    235.15012   -350.94881    181563.75   -13317.209    967.29421   -14284.503     15.24016    1.0922001 
    3900    239.54246   -445.36737    181563.75   -13331.735    985.36219   -14317.097    15.515343    1.0922001 
    4000    245.03871   -409.87693    181563.75   -13344.711    1007.9711   -14352.683    15.696888    1.0922001 
    4100    239.04311   -312.25254    181563.75   -13325.236    983.30812   -14308.544    16.046057    1.0922001 
    4200    245.78381   -302.37573    181563.75   -13302.475    1011.0361   -14313.511    16.301831    1.0922001 
    4300    250.12515    -322.6465    181563.75   -13247.499    1028.8943   -14276.393    16.526395    1.0922001 
    4400     242.5291   -341.24731    181563.75   -13259.184    997.64778   -14256.831    16.746325    1.0922001 
    4500    233.02729   -304.28396    181563.75   -13311.292    958.56193   -14269.854    16.883942    1.0922001 
    4600    242.00801   -436.69603    181563.75   -13324.152    995.50427   -14319.657     16.98301    1.0922001 
    4700    242.59866   -312.30643    181563.75    -13333.44    997.93393   -14331.374    17.090235    1.0922001 
    4800    242.82395   -282.27364    181563.75   -13303.994    998.86065   -14302.855    17.474213    1.0922001 
    4900    239.90605   -328.11918    181563.75    -13321.37    986.85782   -14308.228     18.13371    1.0922001 
    5000    234.35829   -481.03283    181563.75   -13326.506    964.03703   -14290.543    18.543512    1.0922001 
    5100    239.72923    -495.9917    181563.75   -13331.258    986.13046   -14317.388      19.1086    1.0922001 
    5200     234.8324   -371.29414    181563.75     -13318.2    965.98726   -14284.187    19.703761    1.0922001 
    5300    238.08798   -313.07618    181563.75    -13357.56    979.37916   -14336.939    20.063656    1.0922001 
    5400    238.68276   -193.44365    181563.75    -13332.76     981.8258   -14314.586    20.328173    1.0922001 
    5500     240.7736   -482.26411    181563.75   -13365.942    990.42649   -14356.368    20.258932    1.0922001 
    5600    228.99584   -392.56012    181563.75    -13373.82    941.97846   -14315.798    20.375222    1.0922001 
    5700    239.29245    -286.4631    181563.75   -13331.184    984.33376   -14315.518    20.814758    1.0922001 
    5800    245.54246   -325.30962    181563.75   -13271.486    1010.0433    -14281.53     21.26119    1.0922001 
    5900    236.95914   -318.80125    181563.75   -13308.004    974.73566   -14282.739    21.807549    1.0922001 
    6000    237.63023   -366.52857    181563.75   -13365.782    977.49618   -14343.278    22.065907    1.0922001 
    6100    241.26104    -501.3331    181563.75   -13348.753     992.4316   -14341.184    22.097675    1.0922001 
    6200    233.76104   -370.83601    181563.75   -13320.152    961.58022   -14281.732    22.267714    1.0922001 
    6300     242.8635   -356.08885    181563.75   -13295.782    999.02336   -14294.805    22.852213    1.0922001 
    6400    237.07421   -279.49566    181563.75   -13299.836    975.20899   -14275.045    23.067611    1.0922001 
    6500    236.44373   -456.39387    181563.75   -13318.828    972.61551   -14291.444    23.373969    1.0922001 
    6600    234.24346   -297.51907    181563.75   -13369.995    963.56466   -14333.559    23.645501    1.0922001 
    6700    236.07634   -382.72287    181563.75   -13387.202    971.10423   -14358.306    23.802267    1.0922001 
    6800    233.17622   -363.40397    181563.75   -13373.897    959.17457   -14333.072    24.004131    1.0922001 
    6900    235.00882   -301.32603    181563.75   -13406.257    966.71296    -14372.97    24.523753    1.0922001 
    7000    235.52688   -389.24161    181563.75   -13398.362    968.84402   -14367.206    24.957225    1.0922001 
    7100    239.61421   -472.39853    181563.75   -13318.687    985.65732   -14304.344    25.495106    1.0922001 
    7200    238.90396   -347.65543    181563.75   -13325.447     982.7357   -14308.183    25.936172    1.0922001 
    7300    234.58894   -258.00894    181563.75   -13383.808    964.98582   -14348.794    25.882281    1.0922001 
    7400    225.44422   -307.01298    181563.75   -13388.597    927.36884   -14315.966    25.887519    1.0922001 
    7500    228.07801   -409.07439    181563.75   -13407.975    938.20296   -14346.178    26.586587    1.0922001 
    7600    227.87942   -462.59845    181563.75   -13411.693    937.38606   -14349.079    26.661996    1.0922001 
    7700    236.48569   -377.22516    181563.75   -13395.108    972.78809   -14367.896    26.842499    1.0922001 
    7800    248.54753   -217.43936    181563.75   -13355.898    1022.4047   -14378.303    27.318398    1.0922001 
    7900    239.64933   -278.84974    181563.75   -13357.331    985.80179   -14343.133    27.733366    1.0922001 
    8000    230.54626     -292.071    181563.75   -13348.041    948.35616   -14296.398    28.192241    1.0922001 
    8100    239.97597   -341.91668    181563.75   -13353.669    987.14543   -14340.815     28.30866    1.0922001 
    8200    238.06833   -433.00102    181563.75   -13387.872    979.29833    -14367.17    28.501691    1.0922001 
    8300    237.50577   -323.44538    181563.75   -13402.437    976.98423   -14379.422    28.535951    1.0922001 
    8400    232.75014   -225.49939    181563.75   -13399.493    957.42187   -14356.915    28.839672    1.0922001 
    8500    238.37696   -308.97354    181563.75   -13396.812    980.56789    -14377.38    28.922894    1.0922001 
    8600    238.30073   -525.51429    181563.75   -13367.817    980.25429   -14348.072    29.008199    1.0922001 
    8700    235.51613   -461.78921    181563.75   -13420.837    968.79979   -14389.636    29.269148    1.0922001 
    8800    242.14206    -288.3202    181563.75   -13370.083     996.0557   -14366.139    29.527181    1.0922001 
    8900    238.29508   -302.46953    181563.75   -13378.448    980.23109   -14358.679    30.130957    1.0922001 
    9000    236.68278   -174.92048    181563.75   -13334.766    973.59884   -14308.364    30.539352    1.0922001 
    9100    239.75242   -354.10657    181563.75   -13329.739    986.22587   -14315.965    30.701695    1.0922001 
    9200    241.03715   -412.62762    181563.75    -13367.83    991.51061   -14359.341    31.118654    1.0922001 
    9300    237.62112   -348.04117    181563.75   -13380.616    977.45872   -14358.074    30.994835    1.0922001 
    9400    234.10236   -406.94552    181563.75   -13400.968    962.98426   -14363.952    31.359811    1.0922001 
    9500    240.92554   -277.52818    181563.75   -13386.858     991.0515   -14377.909    31.778169    1.0922001 
    9600    224.62613   -415.19438    181563.75    -13440.92    924.00361   -14364.923    32.391812    1.0922001 
    9700    235.82389   -335.52091    181563.75   -13375.482    970.06579   -14345.548    32.895765    1.0922001 
    9800    229.79143   -260.61173    181563.75   -13394.889    945.25114    -14340.14    33.022771    1.0922001 
    9900    238.18547   -350.96892    181563.75   -13337.077    979.78018   -14316.857    33.409627    1.0922001 
   10000     242.1778   -358.04373    181563.75    -13280.12    996.20272   -14276.323    33.677264    1.0922001 
Loop time of 15.5432 on 100 procs for 10000 steps with 9253 atoms

Performance: 277.935 ns/day, 0.086 hours/ns, 643.367 timesteps/s
97.6% CPU use with 100 MPI tasks x no OpenMP threads

MPI task timing breakdown:
Section |  min time  |  avg time  |  max time  |%varavg| %total
---------------------------------------------------------------
Pair    | 0.00094628 | 4.4673     | 13.148     | 237.0 | 28.74
Neigh   | 0.0046644  | 0.15621    | 0.36594    |  31.6 |  1.00
Comm    | 0.20066    | 2.8868     | 10.792     | 182.6 | 18.57
Output  | 0.13714    | 0.13734    | 0.14443    |   0.2 |  0.88
Modify  | 0.353      | 7.7559     | 15.058     | 231.7 | 49.90
Other   |            | 0.1397     |            |       |  0.90

Nlocal:    92.53 ave 188 max 0 min
Histogram: 30 0 10 10 0 0 0 4 33 13
Nghost:    791.89 ave 1112 max 568 min
Histogram: 24 6 0 25 13 2 8 10 2 10
Neighs:    0 ave 0 max 0 min
Histogram: 100 0 0 0 0 0 0 0 0 0
FullNghs:  10007.1 ave 23045 max 0 min
Histogram: 38 12 0 0 0 0 3 21 21 5

Total # of neighbors = 1000706
Ave neighs/atom = 108.149
Neighbor list builds = 555
Dangerous builds = 0
write_data 	    ${DIR}/data.${NAME}_eq
write_data 	    run_28/data.${NAME}_eq
write_data 	    run_28/data.ibeam_cooling_28_eq

undump              1
unfix               4



################################################
#######         Run Simulation         #########
################################################

reset_timestep      0
timestep	    10.0
log                 ${DIR}/log.run_${NAME}
log                 run_28/log.run_${NAME}
log                 run_28/log.run_ibeam_cooling_28
