LAMMPS data file via write_data, version 7 Aug 2019, timestep = 5000000

4097 atoms
1 atom types

6.8938058941739655e-02 5.1351061941060777e+01 xlo xhi
6.8938058941739655e-02 5.1351061941060777e+01 ylo yhi
6.8938058941739655e-02 5.1351061941060777e+01 zlo zhi

Masses

1 18.15

Atoms # atomic

3407 1 1.8937102940371833e+00 9.2732621779976576e-01 1.1377165951888755e+00 -2 2 2
1116 1 7.5845295005170712e+00 2.8020020626715958e+00 1.9411369118057102e+00 1 0 1
3524 1 9.8034382253081400e+00 1.3190984825939920e+00 2.4554737788786603e+00 0 1 -1
3611 1 1.1652363120529682e+01 1.6359368638408309e+00 3.3986788430824166e-01 1 1 1
2253 1 1.3144331338751758e+01 3.2011287386285217e+00 1.9196806439263749e+00 1 0 -1
3080 1 1.5840170645752565e+01 2.7683257172024898e+00 1.0408472914315443e+00 0 1 1
1612 1 1.5766311820572803e+01 7.8202748798100996e-01 3.1927254034347397e+00 -2 1 1
3171 1 1.8521467657152709e+01 1.9837111151615938e+00 6.1690598313639189e-01 1 1 3
35 1 2.0546820037366238e+01 2.4974472163297636e+00 2.5818378362218755e+00 -2 -1 -1
3326 1 2.2754680949661548e+01 1.9077942635996525e+00 1.4301889242816275e+00 -1 1 2
2366 1 2.4557095420139500e+01 2.2746842328041268e+00 3.2801151789967014e+00 2 1 -1
1564 1 3.1328708104433605e+00 5.4751947529695162e+00 2.2964026830009576e+00 2 0 2
3826 1 2.2197772143698877e+00 3.5679918987409285e+00 2.7396402953681065e-01 0 -1 1
490 1 5.3330690549663924e+00 5.6627290625110449e+00 8.2344589085109965e-01 -1 1 1
1892 1 7.8658167559717720e+00 5.3346031073051847e+00 2.0921589425683913e+00 2 1 0
273 1 9.6463591477939357e+00 6.0938256968858697e+00 2.8001455267721287e-01 0 2 -1
266 1 1.2245736409919623e+01 5.4943014022718240e+00 7.5856790018862541e-01 0 0 2
903 1 1.6594670915350875e+01 5.4582425124661231e+00 1.5815272130916858e+00 0 2 1
585 1 2.2836208506516257e+01 6.3458295659005914e+00 6.8455263225001606e-01 0 3 -2
1194 1 4.3288152010828522e+00 9.3240247309496223e+00 1.8395499899255581e+00 1 -2 1
3956 1 1.4280810200374768e+01 6.7993336554360022e+00 1.9527754462522742e+00 -1 0 2
22 1 1.3878185494621151e+01 9.0445806432015932e+00 7.7265679000596377e-01 1 0 -1
497 1 2.0349145835453974e+01 6.8661642738303508e+00 1.5310554261941598e+00 1 0 1
2495 1 2.0400708647037501e+01 9.3297249718875275e+00 1.8988014555084562e+00 0 -1 -1
3105 1 2.4873504178017559e+01 6.5157284110769762e+00 2.5689207583978177e+00 2 3 -1
3592 1 2.4325514700915654e+01 9.1964616124837129e+00 3.2475200172735823e+00 0 0 2
3059 1 2.1229110245369380e+00 1.1165476361222511e+01 1.7697053083638381e+00 2 -2 -1
1204 1 6.2627533523112637e+00 1.1023687258768572e+01 2.2067683761112562e+00 0 0 0
1793 1 9.0444189494902698e+00 1.0151129933004629e+01 2.2931884226030950e+00 0 2 -1
1542 1 1.0774208929111333e+01 1.2001322445964803e+01 2.2578623721756128e+00 -1 0 -1
3321 1 1.3030368584022820e+01 1.0518632433736096e+01 2.9268084939720049e+00 1 1 0
3588 1 1.7797785532767204e+01 1.1002829970727539e+01 1.6693746478691529e+00 0 0 3
1626 1 2.4682504660492224e+01 1.0914304586521540e+01 1.2120981935563877e+00 -1 1 1
1754 1 2.6004471870898818e+00 1.3995970397402347e+01 1.8627062760899002e+00 0 0 0
2032 1 3.2001673612879783e-01 1.5421603491702577e+01 1.3476526640806710e+00 -1 -1 0
4042 1 6.5900968956255070e+00 1.3153567870032061e+01 3.9961061801550307e-01 1 -1 1
2251 1 8.4616973657339791e+00 1.5210422792786931e+01 4.0195844382964452e-01 1 0 0
2649 1 1.0646924206602591e+01 1.3970866278362099e+01 3.2507922381302184e-01 2 -2 -1
2856 1 1.3109501235967665e+01 1.5299203527268977e+01 6.5084363431952252e-01 2 0 0
117 1 1.5288902582255476e+01 1.3745645767424151e+01 1.2964431640324574e+00 0 -1 1
2453 1 1.7097884319744086e+01 1.5505452836101927e+01 1.4622627521800229e+00 -1 0 2
2520 1 1.9697718589913997e+01 1.4560433730328272e+01 1.3355269415917299e+00 2 1 -1
610 1 2.4125861401293019e+01 1.3392628414065259e+01 2.2067054412484088e+00 -1 1 0
2599 1 1.3330077542127021e+00 1.7933021629925094e+01 1.4732316835714163e+00 4 -1 4
2104 1 5.8759868246939186e+00 1.7913010638637985e+01 2.0793640304195784e+00 2 -2 0
1117 1 8.0364827324325532e+00 1.6318515675004996e+01 2.6584665105587870e+00 -1 0 1
4039 1 1.0225983115866402e+01 1.8255748410533482e+01 2.6724766684593373e+00 1 1 0
2324 1 1.2563403118032841e+01 1.6667828303168886e+01 3.0661691300159011e+00 3 1 0
3693 1 2.1771828234920147e+01 1.6489779340111461e+01 5.3182686347468389e-01 2 0 0
114 1 2.5059358473724494e+01 1.6507036136589520e+01 2.4014878620830964e+00 1 -1 -1
4022 1 2.2723772211181664e+01 1.7602515299368370e+01 2.5268831635269038e+00 -1 -1 2
733 1 4.1180693977926444e+00 2.1762462764570738e+01 2.1167396512045773e+00 0 -1 -1
3064 1 6.4545245403895004e+00 2.0572396128759959e+01 2.2440092050417486e+00 1 -2 0
3061 1 8.3753859440389533e+00 2.1327259776256213e+01 2.0382032056684962e-01 0 -2 0
2932 1 1.0577624890283511e+01 1.9853193548867431e+01 7.9204751996318434e-01 4 0 -1
3760 1 1.2710123728882145e+01 2.1559108751437957e+01 1.1198338015639371e+00 1 2 1
963 1 1.4919956265404222e+01 1.9888136225377437e+01 1.3645865178244134e+00 2 0 1
2897 1 1.7109953657095918e+01 2.1513545430487785e+01 2.0881917298425412e+00 -1 0 2
2575 1 1.9269899080499190e+01 1.9967613215561258e+01 2.2836770114386726e+00 1 -1 1
3231 1 2.1288476751232718e+01 2.1710662919292119e+01 2.6020197939408911e+00 0 3 1
3045 1 2.3422944478629464e+01 2.0198574070675910e+01 2.5891437560210240e+00 -1 0 1
1340 1 2.4911849308401308e+01 2.1436330044175222e+01 6.0296771334666333e-01 -1 -1 -1
215 1 4.8473032757825054e+00 2.4394777990618604e+01 2.2158564556066951e+00 1 1 1
3138 1 6.2711596274096442e+00 2.5409619876803770e+01 2.8633448315671728e-01 2 2 1
2249 1 8.3460235542828816e+00 2.3859769407570372e+01 7.2371767556441513e-01 1 0 0
543 1 1.0144681391621262e+01 2.4031063897880468e+01 2.8040924669144229e+00 1 0 1
4019 1 1.2370839100188473e+01 2.2784504022945018e+01 3.4047280556416513e+00 1 0 2
2834 1 1.8938081635017319e+01 2.4485233499866570e+01 1.9491536773660567e-01 0 0 -1
337 1 2.5311561943976820e+01 2.5471901532892314e+01 1.9973581898403279e+00 0 2 0
3251 1 1.1715324115148034e+00 2.8570760548586149e-01 5.4665656989897666e+00 1 0 -1
606 1 1.3409860047327415e+00 2.8381963630082563e+00 5.6756085496352595e+00 1 -1 0
1000 1 5.5528125086946760e+00 2.3351709111716628e+00 4.0025823140050996e+00 0 1 2
2164 1 6.9060924959797809e+00 2.7803687985226015e+00 6.2146506885532125e+00 1 1 0
1152 1 9.4342301858510211e+00 1.4883161636828650e+00 6.1149097071677208e+00 0 0 -2
4012 1 1.1850897810461202e+01 2.4795004921433015e+00 4.1082172796178256e+00 1 1 1
2449 1 1.3472402524843416e+01 6.3098452392950755e-01 4.7898121260555522e+00 2 0 1
1124 1 1.7333455721246750e+01 1.3378516832217509e+00 5.1697399411789648e+00 -2 1 -2
3340 1 1.9922144978360802e+01 9.3074073161354354e-01 4.4910250060802621e+00 3 1 1
39 1 2.1512246229580043e+01 1.2706712642312059e+00 6.4739139519834437e+00 2 0 0
1514 1 2.4166834188177109e+01 7.0857596800372724e-01 5.5828756839623903e+00 -3 0 1
4060 1 3.5008577488605672e+00 3.8259792412180529e+00 4.1615687719328331e+00 2 0 2
3022 1 4.4537996057959175e+00 5.9300589389858844e+00 6.0008638295903252e+00 0 0 2
505 1 7.1679199887754468e+00 5.5560319714753392e+00 6.1904348506607016e+00 -2 -1 1
3331 1 8.8806816738284358e+00 6.1128232027621729e+00 4.4488654536960555e+00 -1 1 1
582 1 1.1693323976408049e+01 5.0740861415805973e+00 5.2869347222307592e+00 0 2 2
880 1 1.4533272796638725e+01 3.5650112285539031e+00 6.0393492603993204e+00 0 0 1
689 1 1.7209647583298892e+01 4.0168100094574104e+00 5.9664024196019421e+00 -1 0 1
1133 1 1.7434632074446842e+01 5.8620304488914208e+00 3.9630767202461161e+00 2 1 0
1890 1 1.9832882160866728e+01 4.9923408401542009e+00 3.6335837112323914e+00 -1 1 0
1287 1 2.1841417923022803e+01 5.6409973558034308e+00 5.3377742763985152e+00 1 -1 -2
2239 1 2.4397799895847246e+01 4.8866232481539145e+00 4.1367228175430100e+00 0 -1 0
2388 1 1.0232739889097822e+00 7.7317166094572407e+00 3.6361550314933559e+00 -1 0 -2
2110 1 3.8922208198153676e+00 8.2595922146473022e+00 4.5496961412628965e+00 0 0 0
3276 1 9.4573043853237095e+00 8.8355991440015220e+00 4.4523969860468036e+00 2 1 -1
2144 1 1.1895534351312300e+01 9.1419661850298564e+00 5.1015980507070173e+00 -1 -2 2
2220 1 1.3632342568675679e+01 7.1106427614800998e+00 4.5593546466972654e+00 -1 1 0
2632 1 1.5880238800024847e+01 6.9450971999099940e+00 6.2353772785203061e+00 -1 1 -1
3099 1 1.7078184064064224e+01 9.3710020044133522e+00 6.6017427772343860e+00 2 0 1
1582 1 2.1658974185797646e+01 8.2622348549880709e+00 5.9153412181623350e+00 -1 -1 1
306 1 7.9563448906993040e-01 1.0564961168861171e+01 4.3829716412699522e+00 0 -1 0
790 1 1.8162035341124703e+00 1.1242307479884568e+01 6.8277590906272323e+00 0 0 0
1787 1 6.1924576451037687e+00 1.1359189681881920e+01 6.5236900096916814e+00 1 0 1
2861 1 8.5473459968447685e+00 9.9278451461651969e+00 6.7675098480134590e+00 0 -1 0
2296 1 1.5211681649026213e+01 1.2116707745728394e+01 3.6913764459612506e+00 1 3 1
175 1 1.7488565619216082e+01 1.1181110678494537e+01 4.6342273856942073e+00 1 0 -1
2872 1 2.1922362057261381e+01 1.0154181481321192e+01 3.8108404422009174e+00 -1 1 1
3481 1 2.2391966222426504e+01 1.2721826456898368e+01 4.2639701483179158e+00 2 1 -1
2983 1 2.6101477530772441e+00 1.3822697115912360e+01 5.9276172774340168e+00 -1 -1 0
2074 1 2.4335874402758151e-01 1.5227097656619167e+01 6.0783018618669971e+00 3 0 -4
1218 1 6.0296174139392900e+00 1.2958828879558380e+01 4.3559128856991221e+00 1 3 1
1137 1 3.9779208179565915e+00 1.4683361962221598e+01 4.0129302965641021e+00 0 1 1
3466 1 8.1724164649854298e+00 1.4688898927066679e+01 4.8220576273395999e+00 1 -1 -1
2425 1 1.0250286840659264e+01 1.3291696818022258e+01 4.6130616581660933e+00 2 -1 1
3950 1 1.2321307860699047e+01 1.5073628993764782e+01 5.3373582822917598e+00 0 -2 2
2588 1 1.4379070785059003e+01 1.3581350281812268e+01 5.9382281977605693e+00 0 -1 0
3296 1 1.8302054439401935e+01 1.3469694146601302e+01 6.5222975624559254e+00 0 0 0
2216 1 1.6427979133972975e+01 1.5381483382735764e+01 6.3131819226559625e+00 1 2 -1
3916 1 1.9947209059982967e+01 1.3959487505721215e+01 3.9392177374972772e+00 -1 -1 2
2805 1 2.3783821856512397e+01 1.3112339034869825e+01 6.7496119110504988e+00 -1 1 2
3428 1 2.1999913797376416e+00 1.8392844376206327e+01 3.8382088694850625e+00 2 1 1
3133 1 4.1182525096998707e-01 1.7816868740854627e+01 5.8218386332195591e+00 -1 1 -1
2847 1 4.3576076996637410e+00 1.7197921058327196e+01 4.2638723066908719e+00 0 0 -1
3859 1 5.4748318171574120e+00 1.7611480198072023e+01 6.5882433523097115e+00 1 0 1
3907 1 1.4905047538160652e+01 1.8340442671755977e+01 3.6179797751796747e+00 1 1 2
105 1 1.6923096458522153e+01 1.6804023738795088e+01 3.9243785868581180e+00 -2 -1 -1
1613 1 1.9135723435330377e+01 1.8380389516640218e+01 4.3061149118770352e+00 0 2 1
2171 1 2.1169515072211979e+01 1.6506932421922716e+01 4.4981445965149787e+00 -1 2 -2
1438 1 2.5090833002913473e+00 2.0951816032730402e+01 3.8597323037993254e+00 0 1 0
851 1 4.0922379710483942e-01 2.2302214759822849e+01 3.9312192761302422e+00 0 -1 3
1086 1 3.5978862128180924e+00 2.1716255227641984e+01 6.0519807111107733e+00 1 -2 0
2431 1 5.8043773132376453e+00 2.0244963787963261e+01 6.7212651887312616e+00 1 -2 1
1850 1 7.7045414101204548e+00 2.1169477248421355e+01 4.7976170081610556e+00 1 0 2
1686 1 9.6500667919537442e+00 1.9621269196948049e+01 5.0214166109621727e+00 0 3 -1
781 1 1.1898218091624118e+01 2.1094790715311206e+01 5.5845925410222019e+00 3 0 1
2783 1 1.4317681116534068e+01 1.9882417561275911e+01 5.7856490706812540e+00 2 -1 0
393 1 1.6482385985654606e+01 2.1473297060481066e+01 6.1576081355164556e+00 -1 1 -1
2312 1 1.8524689638256927e+01 1.9837333426275052e+01 6.2861194349952427e+00 -2 -3 3
2716 1 2.0584402078836835e+01 2.1430394501021830e+01 6.4917951646011973e+00 3 -1 -1
98 1 2.4345603918039124e+01 2.0868800717682610e+01 5.1335678432592466e+00 0 -2 0
800 1 1.0924006790628822e+00 2.5008461885195420e+01 3.9489204818346484e+00 0 1 3
2709 1 2.1216422350419850e+00 2.5538178540840708e+01 6.2827954815152260e+00 1 0 0
97 1 6.4442215126833826e+00 2.5023268347642635e+01 4.4669313695187407e+00 -1 1 -1
3904 1 4.4056142973041608e+00 2.4212003610337220e+01 6.2689772479558572e+00 -1 1 0
2005 1 8.5337282474330447e+00 2.3659086122961156e+01 4.8448539314561829e+00 1 2 1
2879 1 1.4425205758572751e+01 2.4425757849031832e+01 3.6503343297813533e+00 2 0 0
1580 1 1.6516215453428391e+01 2.3230914755090232e+01 3.8954380551884626e+00 0 0 2
183 1 1.8553433795616726e+01 2.4965192023818506e+01 4.3349589482486648e+00 1 0 0
650 1 2.0739679204334287e+01 2.3363169824160540e+01 4.6127667046130689e+00 0 0 0
1384 1 2.2748524407824146e+01 2.4705636773753806e+01 5.2869988995779567e+00 -1 0 -1
2800 1 2.4892003240697775e+01 2.3406507680819576e+01 5.5957082536637497e+00 1 -1 1
455 1 6.7425482697580830e-01 2.4296355213412113e-01 9.8497147843784614e+00 2 0 0
4002 1 1.3606913932500926e+00 2.6928442590993371e+00 1.0166059779643840e+01 0 2 1
2038 1 5.1416474467501549e+00 2.0734062854017199e+00 8.0414012630741283e+00 2 0 -1
1636 1 1.2393078220818461e+01 7.5988393170681567e-01 9.2367378842797923e+00 1 0 1
1038 1 1.0358717193944985e+01 2.3237015443174536e+00 8.6896762556611389e+00 0 1 2
3262 1 1.4369418365151217e+01 1.4108834062478672e+00 7.5770085504483582e+00 1 0 -1
921 1 1.8486852162715262e+01 2.6388038019272351e+00 1.0238115016290102e+01 -1 0 2
1861 1 1.8502004591852614e+01 3.1305804689702826e-01 9.3835503030543190e+00 -2 3 -2
2912 1 2.2827127502401982e+01 3.8621963972182116e-01 1.0323108031256153e+01 0 2 1
3379 1 2.7052705792438063e+00 3.3965212718653714e+00 7.9630383848266231e+00 -1 2 0
2153 1 2.8371228122261174e+00 6.1019378901699310e+00 7.8689684637886357e+00 2 0 0
1236 1 8.1757611358744740e+00 5.8443844929901534e+00 8.5611068062668192e+00 0 1 1
3169 1 1.0738128160531373e+01 4.9687174947936166e+00 7.7587470694660485e+00 -2 1 0
928 1 1.2232774012607164e+01 6.2252148498488653e+00 9.3544973354800760e+00 0 0 2
1685 1 1.5379635417812922e+01 3.4015604693901289e+00 9.6056730098544953e+00 -1 0 -2
879 1 1.4658493149228429e+01 6.0266837657555481e+00 8.4925832423446099e+00 -1 0 -1
3835 1 1.9023429169637772e+01 4.1903665164631008e+00 8.1174624623198319e+00 0 1 -1
1762 1 2.1393033165638702e+01 3.7361140953939587e+00 7.2208115314037329e+00 -1 0 0
614 1 2.3124596134932400e+01 4.2116265311852050e+00 9.0485207234861509e+00 0 0 0
3955 1 2.5620723677764190e+01 3.8353097312328202e+00 8.2251847096224946e+00 0 2 1
2489 1 4.3711585060193231e-01 8.0217219350858109e+00 8.0620492389467504e+00 -1 -1 3
829 1 5.0437907736999046e+00 8.9225321151635377e+00 9.4822136257380780e+00 -3 -2 0
3010 1 7.8934074722213063e+00 8.5836518338438115e+00 9.1684441164875832e+00 2 1 1
873 1 1.1893380890003442e+01 9.0051174171090569e+00 9.8286484542464638e+00 -3 -1 1
529 1 1.8785283851757779e+01 6.6560700110412228e+00 9.1829872985540799e+00 0 0 2
915 1 1.6368651284199348e+01 6.8212242245274917e+00 1.0304834465584264e+01 -3 0 0
413 1 1.9497254139935787e+01 9.1014808031171341e+00 7.5192058722165678e+00 1 1 -1
1706 1 2.2899898251722686e+01 6.7730325404005418e+00 9.7354156689964562e+00 0 1 0
583 1 2.3472391429495154e+01 8.5652535301396728e+00 7.7269177569367766e+00 -2 2 0
2743 1 4.0314064014439221e+00 9.6958790388617473e+00 7.1380266021426992e+00 1 -3 1
2691 1 5.8039219528846102e+00 1.2589556473341641e+01 8.8142591825773202e+00 1 0 2
66 1 1.2399754608036572e+01 1.0473434063377784e+01 7.5246997460696665e+00 0 1 -2
2200 1 1.0054003212650979e+01 1.1925046367491236e+01 7.2400848038594523e+00 -1 3 2
1146 1 1.4036924626808801e+01 1.2252401616095357e+01 8.0950750704465246e+00 -1 1 0
624 1 1.6269174122508964e+01 1.0850543490733791e+01 8.7161815351759522e+00 1 2 -1
2936 1 1.8212296903585944e+01 1.2457342977343526e+01 8.8805128916655232e+00 0 -1 1
2191 1 2.0295324745120389e+01 1.0865356558576053e+01 9.4778852307994494e+00 1 0 0
2723 1 2.3071186734221552e+01 1.1234304537244519e+01 8.6993896920029687e+00 2 2 0
3578 1 1.8102968536242769e+00 1.3760707678460616e+01 1.0089670068657316e+01 0 2 3
2656 1 3.5579200733181686e+00 1.4386439672190953e+01 8.3647142312867633e+00 1 0 -3
1881 1 7.3775326685422717e+00 1.4738192583953804e+01 9.1109340245499926e+00 0 1 1
1810 1 9.8095303930358160e+00 1.3553731634224327e+01 9.3551125803919142e+00 -1 0 0
1524 1 1.1716414129636547e+01 1.5391049091216402e+01 9.8981930087377972e+00 0 0 1
3644 1 2.4450414356693582e+01 1.5623430328686831e+01 7.4357395073503527e+00 2 1 0
2270 1 2.5698248465267596e+01 1.6078243356708139e+01 9.6705509081346879e+00 2 1 0
3295 1 1.5170440833383616e+00 1.8436411501472804e+01 8.3053187288409092e+00 0 2 0
3363 1 3.7601250068010716e+00 1.7072302059785013e+01 8.4991336207692409e+00 1 2 0
2678 1 7.6434826351729841e+00 1.6222464502349297e+01 6.9900224010089911e+00 1 0 -1
217 1 9.4514943198209682e+00 1.8218458818800794e+01 7.4102848154057979e+00 -2 -1 0
3861 1 1.1913364600610478e+01 1.6741666570176253e+01 7.6338260397296400e+00 2 2 3
3299 1 1.4080966708364111e+01 1.8446194963609649e+01 7.8954887738768882e+00 1 1 3
1333 1 1.6273713203418531e+01 1.6947095901645575e+01 8.5328091925854146e+00 -1 0 1
1345 1 1.8389642204049053e+01 1.8598418249125832e+01 8.8976298061333363e+00 1 2 -3
1403 1 2.2301253057257817e+01 1.7016749864786238e+01 7.0572279450917055e+00 -1 0 1
1365 1 2.0590283561775731e+01 1.7175754045790409e+01 9.5079076453612057e+00 0 0 -3
1872 1 1.8089856090518059e+00 2.1008945733568748e+01 7.8206977223985001e+00 -1 0 1
3515 1 6.8550354025341900e+00 2.1040153126764302e+01 8.9786198882811590e+00 1 1 -1
498 1 8.9037700856981807e+00 1.9451232773860678e+01 9.6694099602449448e+00 -1 0 -1
3892 1 1.1109517425137025e+01 2.1088492634430143e+01 1.0101005412486524e+01 0 1 2
3214 1 1.3484381218380067e+01 1.9992422914876592e+01 9.9507012040728977e+00 1 1 1
1494 1 2.2774427989782222e+01 1.9784705256023216e+01 7.0982149811884092e+00 2 0 0
2002 1 2.3821703340821205e+01 2.0226459580374929e+01 9.3312039760017136e+00 0 1 1
3429 1 9.1225527031654785e-01 2.5589052871524078e+01 1.0261091078520925e+01 2 1 0
3075 1 5.1317372221314868e+00 2.4835990295285018e+01 8.7834376289660270e+00 1 0 1
4076 1 7.5362453166713701e+00 2.3599088621284572e+01 9.1226049921958907e+00 1 -1 -2
1624 1 9.3705886357175601e+00 2.4027375357866710e+01 7.4130055982924095e+00 2 1 1
3109 1 1.1527911936734517e+01 2.2547178261843506e+01 7.8896430217575029e+00 0 0 1
2351 1 1.3817181172448505e+01 2.4378606186826293e+01 8.0800706128913262e+00 2 1 0
1815 1 1.5924158035934431e+01 2.2667066844192213e+01 8.5159547209159356e+00 -2 2 1
3161 1 1.8078782678262737e+01 2.4291830729406691e+01 8.9271689836344486e+00 1 0 -1
3696 1 2.0042602039801750e+01 2.2803388332357642e+01 8.9438319108074626e+00 1 0 1
2790 1 2.1883221725369260e+01 2.4820089261361446e+01 9.3570329352796495e+00 -1 -2 1
2046 1 2.4126576226575398e+01 2.2866980014508147e+01 9.5427001734320704e+00 0 1 0
2081 1 4.4633834288989567e+00 1.6871464509268275e+00 1.2646963697030033e+01 0 2 1
3312 1 6.1840859706906635e+00 2.1585704293105845e+00 1.0663973201222248e+01 1 1 1
200 1 8.6688521753983085e+00 1.1758910261455677e+00 1.0820366254618792e+01 0 1 -1
1011 1 9.6745657100729776e+00 1.7914341427236167e+00 1.3269512126845401e+01 -1 -1 3
2012 1 1.2006794487161638e+01 5.5005481898681430e-01 1.3302424546455130e+01 1 2 1
3415 1 1.3385074196619698e+01 2.2558261743786363e+00 1.1198687900520447e+01 3 1 -1
3291 1 1.6556844859780803e+01 2.5871536294149164e+00 1.2523108960842871e+01 1 2 -2
824 1 2.2877354142498675e+01 2.6377082922451183e+00 1.1355276068251031e+01 -1 2 0
1723 1 2.4719537896047758e+01 3.0128786659514613e+00 1.3343319536140090e+01 1 0 1
849 1 2.2459262897516896e+00 3.4278978599437280e+00 1.2636369426908329e+01 0 -1 -1
4065 1 2.6838799352141169e+00 6.2105398482002627e+00 1.2622547080224267e+01 2 0 -1
2914 1 6.5341157447311566e+00 5.0406497106313957e+00 1.0615444941928629e+01 1 -1 2
8 1 7.8844361555298086e+00 5.7919108440926026e+00 1.2937547147171573e+01 0 -1 2
1679 1 1.2386837069014600e+01 4.7317634026580473e+00 1.1764233429491670e+01 2 -1 1
3929 1 1.0308819590075789e+01 4.4950722782437769e+00 1.3464819140199193e+01 0 0 -1
2966 1 1.3874480531623471e+01 5.5018108813552695e+00 1.3698555721030404e+01 1 -2 0
3798 1 1.6442609889357616e+01 5.3108976579289093e+00 1.2720606592696209e+01 0 2 0
3908 1 2.0154686095446596e+01 3.2774762901239867e+00 1.2185668108195170e+01 -2 1 2
2633 1 2.0393080379094286e+01 5.8381844901906543e+00 1.2996650508359405e+01 0 2 0
2833 1 3.3991549079849992e-01 7.3924193845495507e+00 1.2213105415763952e+01 0 1 2
700 1 4.3383542470024761e+00 6.6370842070660405e+00 1.0381849897319105e+01 1 -1 -1
1141 1 8.6148034048478177e+00 8.2266680910091790e+00 1.3651080944477066e+01 -1 2 -1
1860 1 9.4957489293367772e+00 9.5212299933668287e+00 1.1093510074594114e+01 1 1 -1
3150 1 1.3647477954672937e+01 9.4913225278810778e+00 1.2039869155805466e+01 1 0 1
3755 1 1.5977219814075697e+01 9.6075865455932110e+00 1.1033826407218017e+01 3 1 -2
1161 1 2.0517303046461596e+01 7.2962868532016483e+00 1.0835313480218547e+01 -1 1 0
1683 1 2.4708936386043224e+01 7.1898162929045881e+00 1.1705746173308997e+01 1 1 0
70 1 4.0308430305290494e-01 1.0252068893900464e+01 1.1698837323153615e+01 3 0 0
523 1 2.5045637180559277e+00 1.2006829431986421e+01 1.1888941054393184e+01 0 1 1
1826 1 4.8776309672378444e+00 1.1135419872313095e+01 1.0978286439473965e+01 0 1 2
3226 1 6.6942434005492073e+00 1.1947214437488075e+01 1.2888868626884477e+01 -1 1 0
3953 1 9.2626817232345093e+00 1.2020836855737892e+01 1.1804079046860128e+01 2 1 0
2411 1 1.3590092954541587e+01 1.2276630419000666e+01 1.2592018671173031e+01 -2 1 -2
910 1 1.7756045098551620e+01 1.0317026692335027e+01 1.3232680551555614e+01 1 1 0
2789 1 2.0146052420538467e+01 9.7048855707827837e+00 1.2231905312280048e+01 2 3 -1
696 1 2.4475930929501718e+01 9.9678675671916572e+00 1.2942884680937652e+01 -2 -1 2
270 1 2.5114296876344529e+01 1.1405168851572233e+01 1.0744771616978790e+01 0 0 0
616 1 8.5386132795135139e-01 1.5515647574088300e+01 1.1921146742552533e+01 -1 1 1
2376 1 6.4572108540057025e+00 1.4652678645781997e+01 1.3664825892986519e+01 1 -1 0
2623 1 6.8436922781864968e+00 1.6052319420860165e+01 1.1466599126947020e+01 1 -2 1
1320 1 1.3824203711535290e+01 1.3851803394678281e+01 1.0418994320641056e+01 -1 1 -2
2726 1 1.5973310368724640e+01 1.5489173611384157e+01 1.0684847878956990e+01 2 0 1
2458 1 1.8190434458920837e+01 1.4253943897931522e+01 1.1233244710048748e+01 2 0 1
3124 1 2.0056156718374424e+01 1.5805678320373497e+01 1.1714426572035533e+01 2 0 0
496 1 2.2520754150513937e+01 1.4868225881994578e+01 1.2767464690631911e+01 -1 2 0
3344 1 2.4907020744921617e+01 1.3909948863927532e+01 1.1708596680479095e+01 1 3 1
3805 1 2.8945046696926369e+00 1.6619446542983013e+01 1.3142103354882600e+01 2 0 3
952 1 4.8108083591836763e+00 1.7445557289189672e+01 1.0975088773608521e+01 1 -1 1
2882 1 8.6487063272526079e+00 1.7968431075711912e+01 1.1769485367069366e+01 2 -1 -1
1509 1 1.1272632442187733e+01 1.6878931840965009e+01 1.1936854038608010e+01 -1 2 -1
572 1 1.3060941068562300e+01 1.8656480610306893e+01 1.2441431798092667e+01 -1 1 -1
3659 1 1.5467116552743345e+01 1.7081313287867957e+01 1.3025953404786483e+01 2 1 2
3384 1 2.2064169359901179e+01 1.8827361589831455e+01 1.3377366285305909e+01 -2 1 -1
1283 1 2.1679011992432098e+01 1.9167038186321118e+01 1.0534655321363195e+01 0 1 1
1586 1 1.2570490855788676e+00 2.0706319970853023e+01 1.2670998247859735e+01 0 0 -1
1139 1 2.8248121318475836e+00 2.1486425637296978e+01 1.0463608224774175e+01 0 1 -1
2907 1 5.4390453644014256e+00 2.0149359478116796e+01 1.1174525933813714e+01 0 0 2
1603 1 6.2016565709074030e+00 2.0858398553476192e+01 1.3670920850468564e+01 0 0 1
1276 1 1.5573245127042849e+01 2.1305300507412444e+01 1.0780939007891865e+01 -1 0 1
4078 1 1.7413859352438013e+01 1.9694446894868101e+01 1.1209238671212582e+01 0 0 0
3393 1 1.9904853978974131e+01 2.1076067636756608e+01 1.1055748398423070e+01 2 0 0
2677 1 2.1129672987186936e+01 2.1750235301272941e+01 1.3555778703546178e+01 0 0 -1
1729 1 3.3391164044244328e+00 2.4015190875206134e+01 1.0625379766598147e+01 1 1 2
2083 1 4.4692316576553655e+00 2.4587997641949709e+01 1.3358564697077954e+01 3 0 0
2210 1 8.6320855963858740e+00 2.3780077246028931e+01 1.1740037680127001e+01 1 0 2
1447 1 1.0873672664591691e+01 2.2525537005193897e+01 1.2148316054366333e+01 0 3 0
3620 1 1.2880883073734346e+01 2.4449364728864065e+01 1.2722042632406156e+01 1 0 0
2536 1 1.5424553451066107e+01 2.3308426942522111e+01 1.2764730379779801e+01 1 -1 2
1182 1 1.7336775410096703e+01 2.5212264799876493e+01 1.3452044675630367e+01 0 0 -1
58 1 2.5563232188143726e+01 2.3964935278991135e+01 1.1610855365288645e+01 -1 -1 0
2924 1 2.3032971143451576e+01 2.3654986668310137e+01 1.3096912941677454e+01 0 -1 0
3614 1 1.8408562842491971e+00 2.9966578135245450e+00 1.6819570748450790e+01 2 0 0
1955 1 7.4005456075145493e-01 2.4843770158656078e+00 1.4668327655179391e+01 1 2 0
1634 1 4.1733338214811422e+00 1.7965494535262747e+00 1.7015634752391232e+01 2 1 1
911 1 5.7844371596737938e+00 2.1168859397693378e+00 1.4999632112398279e+01 0 0 -1
1198 1 7.9812340259396235e+00 8.5445441890981377e-01 1.5204438407888391e+01 0 0 1
1835 1 1.3336258387034365e+01 1.0478236177208795e+00 1.5722817193710995e+01 0 1 -1
1602 1 1.7536978258181396e+01 1.9462904164728092e+00 1.4975053776475065e+01 0 1 1
1713 1 1.9916427918936101e+01 1.5722412233680072e+00 1.4481225649278921e+01 0 1 -1
1889 1 2.1405517667408585e+01 2.2441590914290028e+00 1.6418815325994789e+01 -1 0 2
77 1 2.3896091548705559e+01 1.5564796672987313e+00 1.5519038753277515e+01 1 -1 -1
2745 1 2.3872785865587498e+00 5.5700259339793092e+00 1.7138292376005822e+01 2 0 1
3233 1 6.3130214459309117e+00 4.8645980118521193e+00 1.4986317920061737e+01 3 2 1
2779 1 4.0031657275746966e+00 6.3709305934236564e+00 1.5194185267468406e+01 0 0 0
776 1 1.0757769434998647e+01 4.8281337497622490e+00 1.6073353580306438e+01 -1 0 -1
2761 1 1.3425483662910633e+01 3.7201671675091736e+00 1.5795996376391356e+01 1 1 1
2427 1 1.8261144469051967e+01 6.2927192630716968e+00 1.4308974453092068e+01 1 0 1
3920 1 1.7508992931026633e+01 4.3234500486515497e+00 1.6230923007485821e+01 2 1 1
1150 1 2.1827063191391062e+01 6.1987302395748474e+00 1.5343674847749581e+01 -1 0 -1
766 1 2.4442168877305477e+01 5.6234131267680922e+00 1.3822161335381988e+01 0 -2 2
3679 1 2.2661149193119456e-01 7.0633421906073828e+00 1.6678394916724773e+01 1 1 0
1451 1 4.5489670754728122e+00 8.7306125081240840e+00 1.5633942511607554e+01 1 -1 1
1544 1 1.0480730898917235e+01 8.4259392927082217e+00 1.5449934034321958e+01 0 -1 -1
673 1 1.3360459090808098e+01 8.2200219394071503e+00 1.4294610121119666e+01 0 0 1
276 1 1.5121390586210502e+01 8.7009678832975030e+00 1.6151681140130190e+01 1 2 2
1761 1 1.7678286732201219e+01 8.4976992696346105e+00 1.5058417216379812e+01 1 4 0
986 1 2.1614066761907420e+01 8.7997075203209256e+00 1.5903710991412318e+01 0 -1 2
3636 1 5.7060863296866449e-01 9.7824641836924400e+00 1.6664874696109699e+01 1 0 1
2440 1 2.9228742660759313e+00 1.0640843976271427e+01 1.5904331525302702e+01 0 -2 0
1958 1 2.4601873935344667e+00 1.2695856940660006e+01 1.4337006925555452e+01 0 1 2
2202 1 6.9728320332818887e+00 9.8389897315514023e+00 1.4739350368859572e+01 2 1 0
757 1 8.4523895064745602e+00 1.0922886430332975e+01 1.6737321502143601e+01 0 0 3
1668 1 1.1393292641612087e+01 1.2784759991984526e+01 1.3821974272585871e+01 2 1 1
2170 1 1.1095688378684766e+01 1.1247619505534239e+01 1.5937175667039869e+01 1 0 0
1101 1 1.5042610053025724e+01 1.1332455878847577e+01 1.6785831314978171e+01 1 1 0
3239 1 2.2147339719077181e+01 1.0577934335516101e+01 1.3881372135003799e+01 2 2 1
313 1 2.4678769100509571e-01 1.3305839493381612e+01 1.5295294650684248e+01 1 1 1
2542 1 4.1099934815881793e+00 1.4975901274557527e+01 1.4703778739781015e+01 2 -1 1
645 1 8.4936464928504503e+00 1.5209201997766444e+01 1.5440520957103903e+01 -1 0 2
2748 1 1.1008752066712507e+01 1.5296830381873178e+01 1.4302124243878817e+01 0 2 -1
1039 1 1.2803549603616506e+01 1.5643844016672444e+01 1.6252208530047987e+01 0 1 1
2463 1 1.5388058422773540e+01 1.3102327190359595e+01 1.4853360406659839e+01 1 -2 1
51 1 1.5369636036470000e+01 1.5789872132386741e+01 1.5370118218976248e+01 1 1 1
2926 1 1.7583016604038480e+01 1.2950649071763696e+01 1.3761929864085410e+01 1 1 0
2029 1 2.2097648578455996e+01 1.2925877862756728e+01 1.4837222237222701e+01 0 -1 2
3449 1 1.9440912410633857e+01 1.3588967330244232e+01 1.5789864113164993e+01 -1 2 0
3053 1 2.2786059274657237e+01 1.5927319654870645e+01 1.6508675760260576e+01 3 0 2
2265 1 2.3877470731715757e+01 1.3519626711357423e+01 1.6580106935335877e+01 1 2 1
408 1 2.1950051359376701e+00 1.8825762479329800e+01 1.4363595292560225e+01 1 0 0
1387 1 6.2156254524585564e-01 1.7973986458200791e+01 1.6604021382219077e+01 -1 1 -1
1265 1 5.8014918041964112e+00 1.8100376858047024e+01 1.7038947835138963e+01 -2 0 -2
1016 1 8.3728348982650704e+00 1.7803675788155704e+01 1.6059255638434280e+01 0 -1 1
2832 1 1.2866939703593586e+01 1.8102806623197100e+01 1.6858972468078946e+01 0 -2 0
1079 1 1.7460687502777436e+01 1.8642768650324332e+01 1.3798364801922379e+01 0 0 0
3172 1 1.9904940737402672e+01 1.7459194652269272e+01 1.4033914931776751e+01 2 -1 -1
3396 1 1.9775136759802262e+01 1.6227171300092092e+01 1.6585886753823210e+01 1 1 0
202 1 2.3626166079698692e+01 1.6961632505684776e+01 1.4264052598117487e+01 0 -2 -1
2181 1 4.5049352311410642e+00 2.0038868986221004e+01 1.5502397902792673e+01 0 0 0
3750 1 3.8178609484513575e+00 2.2031787590519727e+01 1.7071498593865350e+01 0 1 1
3579 1 8.5038297234969917e+00 1.9387449552262886e+01 1.3927015418010964e+01 2 0 -1
1407 1 1.0707235216655706e+01 2.1093197700363618e+01 1.4456493307801104e+01 1 0 0
2998 1 1.2867620078754607e+01 1.9705293420263573e+01 1.4751193337860739e+01 2 -1 0
3890 1 1.5009614126866204e+01 2.1876965055083584e+01 1.5024425750188401e+01 1 1 1
3128 1 1.8549046765585846e+01 2.2418199246670547e+01 1.4078858400863405e+01 0 2 0
2596 1 1.7008324617346577e+01 2.0590525507192734e+01 1.5666847057996270e+01 1 1 -2
2802 1 6.6338001854002160e-01 2.3095832630654176e+01 1.3900949202332530e+01 0 3 1
3285 1 2.9341883217555327e+00 2.4123387460290569e+01 1.5514988781040220e+01 2 0 -1