LAMMPS data file via write_data, version 7 Aug 2019, timestep = 200000

4097 atoms
1 atom types

2.2260776295725648e-01 5.1197392237040773e+01 xlo xhi
2.2260776295725648e-01 5.1197392237040773e+01 ylo yhi
2.2260776295725648e-01 5.1197392237040773e+01 zlo zhi

Masses

1 18.15

Atoms # atomic

2781 1 2.0244099758657477e+00 3.7057550178237988e+00 4.7447993194282539e-01 1 0 1
3969 1 9.5743981804808804e+00 1.4594919348129423e+01 1.2720079534429043e+00 1 0 1
1528 1 4.9698769848655360e+00 2.4537233234713649e+00 2.6117598786580172e+00 0 1 0
3455 1 2.5404386567596319e+01 2.3996396128120598e+00 6.6370171178588997e+00 0 0 0
1137 1 7.4172584589780115e+00 2.3260248841618747e+00 3.6245078896701459e+00 0 1 0
747 1 1.4663838517857229e+01 2.4961916956969656e+01 3.4088734803669305e+00 0 0 1
1915 1 1.7145430937503306e+01 2.4812583754733075e+00 3.0248299604996527e+00 0 1 1
1624 1 1.9575870939672232e+01 1.5337112848251220e+00 2.0785189142617533e+00 0 1 1
1816 1 2.1935436248099233e+01 2.9527761941450286e+00 1.9287287461289677e+00 0 1 1
510 1 2.4743329158012553e+01 2.3451370777341801e+01 1.2244457467460590e+01 0 -1 0
327 1 6.7541284646215194e-01 4.9240362754348510e+00 2.3854429474630545e+00 0 0 0
122 1 8.4998339742420406e+00 3.0715794282887958e+00 1.0352246369002194e+00 0 0 0
1441 1 1.1225271350497449e+01 4.5446643183177891e+00 5.0412356428783465e+00 0 1 0
2233 1 1.4511350798257205e+01 5.4696736624703339e+00 2.6135554701112302e+00 0 0 0
3917 1 1.2214410323845364e+01 3.4927372152807301e+00 2.5824636485722534e+00 0 1 1
225 1 1.6069519035058086e+01 3.5708322176531149e+00 8.7882218053185779e-01 0 0 0
2225 1 2.1011907665062896e+01 5.5529993139588756e+00 2.5333147838034167e+00 0 0 0
26 1 2.4127253604745516e+01 1.4285843816427716e+01 7.6533775051221671e+00 0 0 0
155 1 6.2157513539975975e+00 6.2928553014595430e+00 4.2059599593073429e+00 0 0 0
1115 1 1.0662448534477948e+01 6.9237490014001875e+00 1.0137668949275216e+00 0 1 0
784 1 1.3314119596387032e+01 8.2753600164935701e+00 2.1946066960207773e+00 0 0 1
1617 1 2.5683403445871161e+01 1.6142189069284491e+01 1.5997436862473197e+01 0 1 0
238 1 1.6238171013421560e+01 8.9660097605007980e+00 4.6011814025551603e+00 0 0 0
4041 1 1.1445388642286737e+01 2.9434151604855974e-01 1.6793557187210929e+01 0 1 0
694 1 1.8115478216789455e+01 2.4789955548565437e+01 7.4948403981566543e+00 0 0 0
779 1 2.5010197852713699e+01 6.7802490535280766e+00 1.1527811461395929e+00 0 0 1
332 1 2.3209286001850877e+01 6.9898303585083781e+00 3.2001592611350183e+00 0 0 0
696 1 3.1130993425808811e+00 1.0609643185911912e+01 2.8852890289505373e+00 0 0 1
3039 1 8.3565641040312943e+00 9.2716396461571939e+00 3.1476237951850168e+00 1 0 1
3181 1 1.0108955930528268e+01 1.1325042172045244e+01 3.6005534979403051e+00 0 0 0
2525 1 2.3811184075035925e+01 3.9867341570335713e+00 1.4324866935815855e+01 0 0 0
2739 1 1.4299362119583407e+01 1.2805773240728065e+01 1.7064462715758848e+00 0 0 1
2190 1 1.7985217598214717e+01 1.2798683282527854e+01 4.0067528985628993e+00 1 0 0
1222 1 1.7047890836296112e+01 1.1917134181561268e+01 1.6942912760638051e+00 0 0 0
1287 1 2.1797718175395776e+01 1.1069517321910386e+01 1.5790314276455770e+00 0 1 0
2168 1 1.2338166255475883e+01 1.0806607651824853e+01 1.6439189361640367e+00 0 0 0
359 1 2.3935284116253928e+01 7.6523231582670928e+00 1.5993454920308865e+01 0 0 0
464 1 2.4692051971327661e+01 9.9866357172215625e-01 1.4306457982485240e+01 0 0 0
928 1 2.6191142983292268e+00 1.3123770571698060e+01 2.9458596294366632e+00 0 0 1
3399 1 1.5114703203309698e+01 2.4281202791448834e+01 8.0548679408877746e+00 1 0 0
319 1 2.1826714392723576e+00 2.1644098384800738e+01 1.7203291055157177e+01 0 0 0
3029 1 1.0678579487491785e+01 1.4208835288549135e+01 3.7439037980302126e+00 1 0 1
2220 1 1.2752657301370192e+01 1.5857017881464746e+01 2.4388170030944596e+00 0 0 0
2910 1 1.5764221399536204e+01 1.5570378409172909e+01 2.3442132184901316e+00 0 0 1
3802 1 1.6280316028192320e+01 2.3768645540136291e+01 7.6957276838134669e-01 0 0 1
229 1 2.4678976492833375e+01 1.0518929040579144e+01 7.3752752592283457e+00 0 0 0
1183 1 2.0428787122340964e+01 1.3213797625225409e+01 3.0946735174978435e+00 0 0 0
1406 1 3.0229141826352803e+00 1.6363692392563244e+01 2.4451846624125131e+00 0 0 0
22 1 6.8592113269686994e+00 1.4590192919471392e+01 1.7384666476927833e+00 0 0 0
2834 1 1.2009155426751386e+01 1.8875543466965446e+01 2.1418915271442223e+00 1 0 1
1378 1 5.7572817650272534e-01 2.2932397286839610e+01 4.9447958208483316e+00 0 0 0
1181 1 2.0469943784494891e+01 1.5550094864907997e+01 1.6899660964835099e+00 0 0 0
881 1 2.3183533232811076e+01 1.6721644972843659e+01 1.9088332064907756e+00 -1 0 1
2069 1 2.4237096097708545e+01 1.9191172500610591e+01 1.3273296749379482e+00 0 0 0
691 1 6.0763739315561018e+00 1.9519213460364888e+01 4.9379440342837952e+00 0 0 1
631 1 7.1474558934654446e+00 1.7445098867922873e+01 2.1024039518304241e+00 0 0 1
1638 1 1.0327795932833183e+01 2.4231299249709110e+01 1.2716571420608538e+01 0 0 0
913 1 9.0789695904711891e+00 2.1805063425591609e+01 2.3191806107063400e+00 0 0 0
2273 1 2.4186008640407206e+01 2.0649347738431558e+00 9.5268225805333913e+00 0 0 0
4009 1 5.1616682288998730e+00 2.5036230614346472e+01 8.0436346675735475e+00 1 1 1
427 1 1.9118211030640669e+01 2.1288771414593814e+01 2.0448946712278850e+00 0 0 0
3402 1 2.0481272212230653e+01 2.2872059828249744e+00 7.1840839503617326e+00 0 1 0
35 1 2.2242882857155823e+01 2.0668623430207099e+01 2.3280783938134380e+00 -1 0 0
801 1 3.1915047456006400e+00 2.1842500946296678e+01 2.4056784290500040e+00 0 0 1
915 1 3.2577348666565338e+00 2.4310023506318299e+01 4.1976684875532690e+00 0 0 1
2231 1 2.3535899335552646e+01 4.3062918886594517e+00 1.0362443293059114e+01 0 0 0
1823 1 1.9849606281710937e+01 1.0964372266806306e+00 1.3226510796048567e+01 0 1 0
199 1 7.3492090533393082e+00 2.3992974145623112e+01 3.3378183349505628e+00 0 0 0
1607 1 1.3479593361030551e+01 1.4810543673294083e+01 1.6718000374420406e+01 1 1 0
1824 1 4.5079151563767788e+00 4.3065866095560805e+00 2.6402641916288028e-01 0 1 1
486 1 1.8994630699861656e+01 2.5068686482443141e+01 1.2811559591028919e+01 0 0 0
2034 1 2.4507959767333098e+01 1.1518475266271288e+01 4.8450295568172521e+00 0 1 1
3697 1 1.2720996802587853e+01 6.8011145512832751e+00 1.6601127074917081e+01 1 1 0
951 1 2.0250849555894912e+00 4.3295084769718989e-01 5.2606279014084247e+00 0 1 1
1044 1 2.4591436062943711e-01 1.8262157850607320e+01 1.0673263783951463e+00 0 1 1
3118 1 4.4978873439426725e-01 2.5382820608073576e+01 7.8556359726498020e+00 1 0 0
315 1 9.3172151862196917e-01 7.6516320500932764e+00 1.2655562494754546e+01 0 0 0
1390 1 1.4901012597222390e+01 1.0323374276189807e+00 4.2633699617750267e+00 0 1 0
255 1 1.4451304611173798e+01 2.6474377946894374e+00 6.7639866466414968e+00 0 0 0
4042 1 1.8390457872928973e+01 2.5491467993576116e+01 2.3707143548357519e+00 0 0 1
2537 1 2.3303238196619930e+01 2.5404626053085297e+00 4.4687949312387341e+00 0 0 0
1382 1 3.5525287238074243e+00 2.6622812859335294e+00 4.6799890679292231e+00 0 1 0
1337 1 7.7718984120409607e+00 4.0756145015816463e+00 5.4828002745957907e+00 0 1 0
290 1 1.1014996509175473e+01 2.3577073731955349e+00 6.6800728057281162e+00 1 0 0
1235 1 1.2184020349979628e+01 7.0614306947789611e+00 5.9672499571263851e+00 0 1 0
4084 1 1.5734865524471843e+01 6.1316284554246181e+00 4.8417039224885103e+00 0 1 1
2944 1 1.7587843360465591e+01 4.4164899812210949e+00 4.5238335713596207e+00 0 0 1
15 1 1.7444210866998674e+01 2.8890982890404291e+00 6.8563185912089537e+00 0 0 0
1902 1 1.9568702822955238e+01 5.9475581762386103e+00 4.8522463245675072e+00 0 1 1
460 1 2.4351974042085029e+01 5.6528163391093438e+00 5.0337500134037434e+00 0 0 0
3135 1 2.1703007949630567e+01 4.8622355322164950e+00 6.4724847751869916e+00 1 1 0
1584 1 1.7165274932332484e+00 5.3157667330643772e+00 5.0835579972228171e+00 0 1 1
3529 1 3.1297550120362718e+00 9.8324748683217731e+00 5.5867060286033929e+00 1 0 0
2060 1 3.7307789944806853e+00 7.1699396165071372e+00 5.4006321465154841e+00 0 1 1
62 1 9.3411844270789004e+00 7.0050768706665609e+00 4.7015261468765361e+00 0 0 0
2093 1 8.8004937465073656e+00 8.5628926864724537e+00 7.3126010674633370e+00 0 1 0
3404 1 1.3310344513604059e+01 9.0826419151123243e+00 5.1676597477284201e+00 1 0 0
1917 1 1.5854946581735131e+01 8.4579899323379877e+00 7.6174607483365477e+00 0 1 1
3230 1 2.0403544864465147e+01 8.7596741480626878e+00 5.3156765068493499e+00 0 1 0
771 1 6.8078006754795861e-01 1.0787624380435444e+01 6.5893179027925939e+00 0 0 1
2160 1 4.8473178640831112e+00 1.1216239944311225e+01 7.1447892943590547e+00 1 0 0
632 1 7.2568251782772908e+00 1.0736848054605145e+01 5.6851156828176297e+00 0 0 0
2390 1 1.1639281868598784e+01 1.1118008593113100e+01 6.5227940900315744e+00 0 0 0
473 1 1.3132421959321702e+01 1.3154830384289463e+01 4.6238546731633727e+00 0 0 0
2456 1 1.8415063268125824e+01 1.0579631007215104e+01 5.5538103522046978e+00 0 0 0
166 1 2.2656347327006639e+01 9.5996283156147815e+00 3.6146609535091470e+00 0 0 0
1098 1 2.1177446736535085e+01 1.3693404450719180e+01 5.6850232668755067e+00 0 1 0
665 1 3.5490500548926407e-01 1.4996878709780985e+01 1.4708759220873798e+01 0 0 0
1 1 5.4815696182060138e+00 1.3588299689611926e+01 3.7866166681101223e+00 0 0 0
553 1 2.9815777214632253e+00 1.3436023299258515e+01 6.6570535239201662e+00 0 0 0
859 1 9.1577620999333682e+00 1.5783387431444178e+01 5.5378764199210977e+00 0 0 1
3754 1 7.3332136650851982e+00 1.4202591510266783e+01 5.7295504747559285e+00 1 1 0
3860 1 1.0843572062172980e+01 1.4524727791178099e+01 7.8461029983316077e+00 1 0 1
2177 1 1.5373651407288776e+01 1.3989776821623082e+01 6.3670030988517539e+00 1 0 0
663 1 1.7180322028013805e+01 1.5510672095477521e+01 4.6299546933240761e+00 1 0 0
2053 1 1.8179692002813944e+01 1.6302807549355748e+01 6.9306634951188695e+00 0 1 1
196 1 2.0826969148844633e+01 1.6058768104246603e+01 6.6861407757507481e+00 0 0 0
3349 1 2.3819092655488308e+01 1.4023220863750014e+01 5.1558633618459488e+00 0 1 0
2352 1 1.8595466194154537e+00 1.7825730617227759e+01 6.2929853193713097e+00 1 0 0
3134 1 3.9828906333173597e+00 1.8212153108105809e+01 8.4402643598011551e+00 1 0 0
780 1 5.0385308767958747e+00 1.6721146327209656e+01 4.3112363157722999e+00 0 0 1
1776 1 8.3927097644453443e+00 1.8543850138843531e+01 4.7121168658859922e+00 0 0 0
212 1 1.4273700247467174e+01 1.8261600131508803e+01 3.4291726955187052e+00 0 0 0
3303 1 1.8757456766619072e+01 1.7412490352311575e+01 2.8488931717007198e+00 0 1 0
2158 1 2.2662212017439362e+01 1.7786934292221851e+01 5.3530237921035102e+00 0 0 0
1795 1 2.0826898823052979e+01 1.9265905112179762e+01 3.9088118294659582e+00 0 0 1
209 1 2.4709575001852585e+01 1.6112951781064268e+01 3.8727420564053623e+00 0 0 0
2 1 1.7436583000906111e+01 9.2178039613829945e+00 1.7987859933458326e+00 0 0 0
3366 1 5.3476546833345182e+00 2.0411984442701350e+01 7.5818909937684200e+00 1 0 1
301 1 5.6537261853472751e+00 2.2974029734395220e+01 5.2549925055724005e+00 0 0 0
1049 1 1.0976005315653220e+01 2.2017616118842717e+01 5.7506572425211848e+00 0 0 0
207 1 1.0499004174364892e+01 2.0233621833328598e+01 3.7828704145769132e+00 0 0 0
2081 1 1.7195778144720432e+01 2.1108507309288708e+01 4.6850685774940422e+00 1 0 0
2169 1 1.5524123939078118e+01 2.0384347553071933e+01 2.8822534846676993e+00 0 0 0
1766 1 1.3612247279824464e+01 1.8919854734430015e+01 6.1368801390582997e+00 0 -1 1
2687 1 1.9538994864323197e+01 2.0190860938978130e+01 5.6813893048772357e+00 1 0 0
3235 1 2.3382317345895714e+01 2.2462817621930707e+01 3.6424432572535581e+00 0 0 0
2015 1 2.5276562178284781e+01 2.1567239617702910e+01 5.2584318229389391e+00 0 0 1
65 1 9.9905988703764181e-01 2.2873694810580322e+01 7.8514372433668802e+00 0 0 0
399 1 1.5143923451279433e+01 2.5456713195874915e+01 1.5623410423129668e+01 0 0 0
514 1 8.3757644662780937e+00 2.3048490596766726e+01 6.9421286941189919e+00 0 0 0
2496 1 3.1744116798375799e-01 1.8149395123667091e+00 1.2923081460075243e+01 1 0 0
2852 1 1.3506575420519077e+01 2.3182593993578770e+01 5.6566443324687015e+00 0 0 1
4067 1 1.6864869807798769e+01 2.3783763786119696e+01 4.5838343003146349e+00 1 0 1
47 1 9.7929748600210580e+00 2.2331182954405328e+01 1.5612086269671886e+01 0 0 0
1273 1 2.4393387049190871e+01 2.4587562885732790e+01 2.0108321520805963e+00 0 0 0
2951 1 2.5175987485701139e+00 1.3752996698058630e+00 9.6424792353705460e+00 1 1 1
2671 1 1.0682992128516606e+01 5.4101683899402531e-01 4.8758738697840140e+00 1 0 0
2253 1 5.1050439347801140e+00 1.3531772672578686e+00 8.3742074980936394e+00 1 0 0
2905 1 6.1564758310230827e+00 3.5651570255084510e+00 1.1501424679215086e+01 1 0 1
254 1 3.4742269563566852e+00 3.8762028195683813e+00 1.1010661075196950e+01 0 0 0
31 1 8.4695056679840732e+00 2.8109425969738471e+00 8.0045012794269539e+00 0 0 0
3103 1 1.1846589001042753e+01 2.1426317504454317e+00 9.3178586112610571e+00 0 1 0
2433 1 1.4146436795437763e+01 1.0424950975791010e+00 8.9445593921908966e+00 0 0 1
3436 1 2.2349115367740925e+01 3.8944301411330146e-01 8.3613730266725419e+00 0 1 0
572 1 1.7525132707068053e+01 2.3775166580765822e-01 7.4162213823621572e+00 0 1 1
2888 1 1.3782239213124370e+01 2.2290967765339207e+01 1.9980067978463447e+00 0 0 1
673 1 4.9299882078469013e+00 3.5650366605274790e+00 6.9132808992877246e+00 0 0 0
1058 1 2.4752094398492925e+00 6.2107675409036540e+00 9.6351006433119917e+00 0 1 0
971 1 4.3997229505659163e+00 6.3589318455082156e+00 7.7795556710716429e+00 0 0 1
19 1 7.3914832290087942e+00 5.0034575567114237e+00 9.3395488917742657e+00 0 0 0
2050 1 1.2251654669966591e+01 4.7652558809367473e+00 9.8652244822368012e+00 0 1 1
2141 1 1.4217327250491758e+01 5.2270192490765499e+00 7.0163346294234223e+00 0 0 0
634 1 1.6821462260504745e+01 5.6791089513220925e+00 8.4758241259364624e+00 0 0 0
334 1 1.9451205845452407e+01 5.7372310052370636e+00 8.9399914478694384e+00 0 0 0
50 1 2.3162321630994608e+01 6.1683756242033843e+00 8.4973804557384618e+00 0 0 0
1116 1 6.2246320849280568e-01 9.8245172638559435e+00 9.2894581956823430e+00 0 0 0
3251 1 7.9461571845052257e+00 2.5571048016515348e+01 7.8571646571272868e+00 1 0 0
220 1 4.9569322621035994e+00 8.7819472141061414e+00 8.8322531116876011e+00 0 0 0
722 1 7.3968150403369721e+00 8.7346897167880932e+00 9.9816480477618335e+00 0 0 0
3205 1 9.3662034825368394e+00 6.5561978498502054e+00 1.0281554702778811e+01 0 1 0
854 1 1.1599773995732303e+01 7.1901120409784411e+00 8.3359084717198701e+00 0 0 1
1347 1 1.3826890189286944e+01 9.0102428258316376e+00 9.1930673955625117e+00 0 0 0
1687 1 2.0695200936197715e+01 7.9741521244461184e+00 9.8523542553240517e+00 0 1 0
1707 1 2.1981971754816730e+01 9.1787788286543837e+00 7.7191481017873880e+00 -1 1 1
283 1 2.5120177973641159e+01 7.6219297043453960e+00 6.9400057290750645e+00 0 0 0
641 1 3.1979440774047152e+00 9.3716724404435805e+00 1.0588294704347838e+01 0 0 0
312 1 3.5483754018628173e+00 1.2161801362273978e+01 1.1105955996952511e+01 0 0 0
13 1 8.2724895749812255e+00 1.1489758141471217e+01 1.0005377460010481e+01 0 0 0
1257 1 9.1490856483425365e+00 1.1965895285849427e+01 7.4620453723744600e+00 0 1 0
2277 1 1.3229564837652038e+01 1.1735560005093907e+01 8.8716593662785446e+00 1 0 0
88 1 1.9091230724877992e+01 9.8413261387763207e+00 1.0565675197559669e+01 0 0 0
3569 1 1.6102136729864547e+01 1.2723001442185103e+01 8.5292864931476533e+00 1 0 0
3981 1 1.7430375240628994e+01 1.0488251776410317e+01 8.3666497279274221e+00 0 1 1
1992 1 2.0344231701095769e+01 1.1760086207196583e+01 7.6318166397686706e+00 0 1 1
956 1 2.3118836995664104e+01 1.2290279448667910e+01 9.2160510629484129e+00 0 0 1
320 1 1.5632619039653022e+00 1.2579863453209008e+01 9.0156183755205834e+00 0 0 0
186 1 1.5081666474374171e+00 1.4262734342030559e+01 1.1966840262468061e+01 0 0 0
543 1 5.8636984802034240e+00 1.2569790305061384e+01 9.5366996125403158e+00 0 0 0
4072 1 9.3352115714217696e+00 1.6453894099790446e+01 9.1302542888489011e+00 1 0 0
924 1 1.4794313174066522e+01 1.6653854761960428e+01 7.4326091493745752e+00 0 0 1
177 1 1.8153504320566206e+01 1.4421455411805894e+01 9.0729300567891826e+00 0 0 0
1351 1 2.0497262845712228e+01 1.3256834608656808e+01 1.0264431474706708e+01 0 0 0
3768 1 2.1275909028100187e+01 1.6433696713128160e+01 9.6918996000408342e+00 1 0 0
2355 1 2.3920788007149557e+01 1.6641643998408803e+01 9.3758774155548696e+00 0 0 0
3260 1 1.6310314456586653e+01 2.1294329742170813e+01 1.5238214439491681e+01 0 0 0
946 1 5.0736535321836262e+00 1.7341407872891505e+01 1.0645396587121482e+01 0 0 1
4054 1 5.1691709022684531e+00 1.5829761877152789e+01 7.1487867901872706e+00 1 0 1
3080 1 6.6057288833897330e+00 1.5338321006327533e+01 9.2110008683144304e+00 1 0 1
2935 1 9.0047445186206581e+00 1.8609397310398620e+01 7.3755302491595378e+00 0 0 1
1154 1 1.1465297104449172e+01 1.6975876436642345e+01 1.0999679423883665e+01 0 0 0
326 1 1.3335759273992917e+01 1.5215406564878400e+01 9.3599228978680227e+00 0 0 0
2558 1 1.7977970587913081e+01 1.8910864805700907e+01 7.6034800731523706e+00 1 0 0
523 1 1.8199231431780678e+01 1.8869211053392362e+01 1.2242218881855848e+01 0 0 0
14 1 2.4629405732368767e+01 1.9259105982166162e+01 9.4680688598914937e+00 0 0 0
1411 1 1.2312517312722884e+00 1.7888945968355184e+01 9.5766124264556218e+00 0 0 0
3350 1 1.0166341402874763e+00 2.0651980281548056e+01 1.0522566919887788e+01 1 0 0
742 1 7.8311690709657675e+00 2.0888225945054113e+01 8.3771218533127119e+00 0 0 1
3166 1 1.1204970875302214e+01 1.9888561284842513e+01 7.4822256271743735e+00 1 0 0
2271 1 1.1182972829979642e+01 1.9441383515448141e+01 1.2574392726673448e+01 0 0 0
1949 1 1.3196839803397138e+01 1.9004366431860429e+01 9.6850602259754002e+00 0 0 0
191 1 1.5334528322300899e+01 2.0816227857965902e+01 6.9560337081609633e+00 0 0 0
703 1 1.9851670720103577e+01 1.8784947315089866e+01 1.0013888861789649e+01 0 0 1
1040 1 2.1463442356262192e+01 2.1663606273169663e+01 7.1619850765182500e+00 0 0 1
2369 1 6.5789011158357091e+00 2.0358854687899157e+01 1.5400564644749174e+01 0 0 0
1932 1 2.3586566875222832e+01 2.0058424863871863e+01 6.8927788386395443e+00 0 0 1
3872 1 3.3570334597740081e+00 2.2755583571369176e+01 8.1941077286463404e+00 1 1 1
2680 1 4.8025991684436660e+00 2.4542145970160881e+01 1.1134853429720385e+01 1 0 1
1156 1 1.0268566100396164e+01 2.3101007907880021e+01 9.9726008129477570e+00 0 0 0
1427 1 1.5322317187719598e+01 2.1678903385316037e+01 9.4708909360116671e+00 0 0 0
228 1 1.9686057364301870e+01 2.3126929399290692e+01 8.6888622708363972e+00 0 0 0
156 1 1.7893962221807971e+01 4.0266633749399166e+00 1.7196735552412886e+01 0 0 0
594 1 2.5240417893897774e+01 1.7541281723142188e+01 1.3704295599888839e+01 0 0 0
800 1 5.4611452671689351e+00 6.7510550546569936e+00 1.5028190704519373e+00 0 0 1
1151 1 2.2873043369925425e+00 3.9289959721836811e+00 1.3540303967968713e+01 0 0 0
1759 1 4.4473631003463590e+00 3.0257231487702527e+00 1.5193757514829672e+01 0 1 1
2827 1 7.7673807434967446e-01 1.3216357200117308e+01 4.6662251590142665e+00 1 0 1
99 1 1.1104935034906136e+01 9.3695675686202429e-01 1.1683208496977114e+01 0 0 0
938 1 3.6001007716403453e+00 2.2534055331822593e+01 1.3590034389551157e+01 0 0 1
898 1 3.4276393411318118e-01 2.2732832929049124e+01 1.8554596351117856e+00 0 0 1
647 1 1.8804646362593100e+01 1.7610164522564048e+01 1.6769181115853350e+01 0 0 0
187 1 1.9555692082698727e+01 2.8071171069872083e+00 9.9145772000300294e+00 0 0 0
349 1 3.9235389086980845e+00 5.9942854439672359e+00 1.7198083937656797e+01 0 0 0
1312 1 5.7936881698607321e+00 5.3065770033511024e+00 1.3981504908080248e+01 0 1 0
2228 1 7.6066838204163023e+00 2.7781416198271445e+00 1.4948694434491635e+01 1 0 0
256 1 1.0187835243714540e+01 3.0458236476873566e+00 1.3696527538287802e+01 0 0 0
4030 1 1.4008338649029625e+01 5.3595717092921848e+00 1.1965936167137382e+01 1 1 1
3443 1 1.5747532628658355e+01 1.1752263189391254e+00 1.1018476130888766e+01 0 1 0
114 1 1.6981951387295883e+01 3.5035952625884299e+00 1.1345389113690992e+01 0 0 0
448 1 1.9355753110826090e+01 5.6197242895810264e+00 1.2479835908312436e+01 0 0 0
856 1 1.3057384058892783e+00 1.3671256287716227e+01 2.8090178877704791e-01 0 0 1
2685 1 1.0354547031159811e+01 8.4836633414230089e+00 1.6924457276474538e+01 1 0 0
365 1 4.0413755554677717e+00 7.4704726825090750e+00 1.2507770654437746e+01 0 0 0
569 1 8.0834728396829760e+00 6.6862763072606359e+00 1.3850170729048958e+01 0 0 0
670 1 1.0152978676753953e+01 5.5238235939135745e+00 1.2781180422348488e+01 0 0 0
3220 1 1.4860357302456155e+01 7.8690549669441996e+00 1.1258387263968874e+01 1 1 0
640 1 1.7594194108065100e+01 7.8256960585874493e+00 1.1893383951452110e+01 0 0 0
1107 1 2.2786854060656626e+01 8.0390268089544392e+00 1.1855062931182044e+01 0 0 0
2401 1 2.3706648776092504e+01 1.0016950555425513e+01 1.3084727842508535e+01 0 0 0
3367 1 4.1181081949131233e+00 1.2024850781226130e+01 1.3597297274312437e+01 1 1 0
287 1 5.1714054275922665e+00 9.5923500405234297e+00 1.4013429402713353e+01 0 0 0
3272 1 7.4466063916124963e+00 9.1392017993383821e+00 1.2684434141793931e+01 1 1 0
2379 1 1.3462305945631863e+01 9.8208343896707166e+00 1.2869965015072946e+01 0 0 0
1334 1 1.2204101449180804e+01 1.1799350904603591e+01 1.1346902840030575e+01 0 1 0
1383 1 1.6802886045934478e+01 1.2793030627222215e+01 1.3115261744633701e+01 0 1 0
1763 1 1.9101057870628836e+01 1.1748947676740958e+01 1.2811055341827757e+01 0 1 0
2221 1 2.0663665725410034e+01 1.2993205136833016e+01 1.4575115181127540e+01 0 0 0
3278 1 2.4425194757032671e+01 1.2112692690435816e+01 1.1431828475122503e+01 1 1 0
200 1 2.2011725343863048e+01 2.3870616362544457e+01 5.5190407378113573e+00 0 0 0
181 1 2.5656040325158127e+00 1.6972527983810604e+01 1.1984473618681026e+01 0 0 0
2604 1 5.7265503419264796e+00 1.4091335018185870e+01 1.4805624571594924e+01 1 0 0
394 1 9.7096035426355964e+00 1.2653533416106933e+01 1.1893122831665803e+01 0 0 0
4066 1 9.0033542698062092e+00 1.5274668178126632e+01 1.1999313601123838e+01 0 0 1
3650 1 1.4136849985628663e+01 1.4139333045496979e+01 1.1517919267896053e+01 1 1 0
1657 1 1.6959973775061229e+01 1.5208347600676289e+01 1.1350972400965588e+01 0 1 0
661 1 2.0858597745621942e+01 1.5119205316499382e+01 1.2294698732861603e+01 0 0 0
3283 1 2.3360567133253941e+01 1.4424100544816106e+01 1.3023936373587198e+01 0 0 0
701 1 9.8239730686288222e+00 1.7137155808302612e+01 9.7306293104456021e-01 0 0 1
1225 1 4.7358442574258192e-01 1.7519297630026141e+01 1.6421903331544836e+01 0 0 0
1410 1 1.0672684264398205e+01 2.5313802482433644e+01 5.3812614625232946e-01 0 0 0
2480 1 5.5712884568824119e+00 1.8417846279234293e+01 1.4144424213106387e+01 1 0 0
2358 1 6.6478832259922509e+00 1.5837994914103023e+01 1.2856659594640881e+01 1 0 0
2417 1 1.0527646136167739e+01 1.5505343861631106e+01 1.4603084911898083e+01 1 0 0
311 1 1.3079470056581242e+01 1.5434663571739401e+01 1.3992954739490523e+01 0 0 0
3140 1 1.8582008334181861e+01 1.5931468261198788e+01 1.3489489667972750e+01 1 1 0
3401 1 2.2294028293015959e+01 1.8034050914842684e+01 1.2782993716077254e+01 0 0 0
2830 1 2.1363082217094544e+00 1.9237316629073419e+01 3.0176192007528764e+00 1 0 1
538 1 3.5612804150665553e+00 2.1659081239309121e+01 1.0941485019922464e+01 0 0 0
576 1 5.6732243712519423e+00 1.9750664148762542e+01 1.1492363915697382e+01 0 0 0
1271 1 7.8844105317635584e+00 2.1328143142566923e+01 1.1033806223450860e+01 1 0 0
1162 1 8.7560829046244386e+00 2.0553160860809925e+01 1.3973100798793515e+01 0 0 0
3339 1 1.2235602472086454e+01 2.2002419417465802e+01 1.3642169091760945e+01 1 0 0
3045 1 1.5755267529569572e+01 1.7558710273182101e+01 1.0527537665537031e+01 0 0 1
3927 1 1.3360986735769842e+01 1.8158741169832179e+01 1.4044151532355912e+01 1 0 1
3266 1 1.5971296989926410e+01 1.8443529489164554e+01 1.4322086714575441e+01 0 0 0
172 1 2.1981770801099479e+01 1.9889749933274860e+01 1.0820078217347119e+01 0 0 0
305 1 7.2060307309095473e+00 2.4046682133543502e+01 1.2400240239023665e+01 0 0 0
2380 1 1.9705118842919127e+01 2.5337453639109711e+01 5.1778241592544632e+00 0 0 0
3773 1 1.2578962934551701e+01 2.1628765248916942e+01 1.0680788862316071e+01 0 0 0
3393 1 1.8064315839050774e+01 2.1763269351963796e+01 1.0692329543788354e+01 1 0 0
3743 1 1.6341442522422451e+01 2.4293844618113219e+01 1.1741690928359791e+01 1 1 1
1364 1 2.1810741664611172e+01 2.4534924211567905e+01 9.7478919510771185e+00 0 0 0
364 1 1.9608791106882506e+01 2.2451779146571401e+01 1.2620390629518141e+01 0 0 0
536 1 8.5669565365584113e+00 6.8644806174538786e+00 1.6446383681862130e+01 0 0 0
1713 1 2.2074303547249464e+01 2.2479332471498026e+01 1.1668075491966674e+01 0 1 0
264 1 4.8589347056605678e+00 1.8867060523146062e+01 9.1068745250832939e-01 0 0 0
2305 1 5.5545986634434179e+00 1.0986167325727619e+01 2.7779402160695166e+00 1 0 0
1413 1 2.5105109123564091e+01 1.5790447695333812e+01 1.1744152462875787e+01 0 0 0
1047 1 6.4411415333066673e+00 8.7471233858202802e-01 1.2722134264463580e+01 0 1 0
2000 1 2.0848366829632411e+01 6.7175685296586451e-01 1.5793010050572059e+01 0 1 0
2514 1 1.1839791708311711e+01 2.5445852690110726e+00 1.5614828896898139e+01 0 0 0
660 1 1.4433026104917349e+01 2.3371480929973609e+00 1.4706815930786435e+01 0 0 0
110 1 1.8257081904364940e+00 2.4252228204351059e+01 1.4106282610510611e+01 0 0 0
82 1 2.1338093377491152e+01 3.7685481168547517e+00 1.1883043601881250e+01 0 0 0
613 1 5.8116334148337803e+00 2.2792870911172844e+01 1.4616678525159584e+01 0 0 0
1056 1 5.9286233226623484e+00 2.0982663208856287e+01 2.5591416846893620e+00 0 0 0
471 1 2.2056818095474611e+01 2.2320896015439406e-01 5.0276225395349456e+00 0 0 0
2918 1 2.4912389583396246e+00 6.3125610294809302e+00 1.4970491630000092e+01 1 0 0
3307 1 2.3464519596209090e+01 2.5180226340572069e+01 7.2220130913667591e+00 0 0 0
988 1 1.5637248269216176e+01 6.6720290759831267e+00 1.5228859709290733e+01 0 0 1
2338 1 1.5695084420456730e+01 4.3674183439314076e+00 1.3801830721977112e+01 1 0 0
3556 1 2.4400051676341572e+01 6.1171334433031657e+00 1.2804409062653363e+01 0 1 0
233 1 6.7654447107906863e+00 2.4768358106838043e+01 1.6378149858370907e+01 0 0 0
2363 1 1.1419495522776900e+01 2.3765317541188516e+01 2.3142612101129205e+00 0 0 0
2274 1 1.2576760681543870e+01 6.8640460723367847e+00 1.3756040615736799e+01 0 0 0
3916 1 1.7398640537938441e+01 1.8961091585951671e+01 1.3399091955591091e+00 0 0 1
168 1 1.7236741874741416e+01 8.5899073433516175e+00 1.4448042984870073e+01 0 0 0
3473 1 2.1112889307666265e+01 7.0260091814684769e+00 1.4056915311811418e+01 0 0 0
1229 1 2.2175412034138308e+01 1.0981481276027468e+01 1.5045534417165422e+01 0 0 0
76 1 5.8732958279072731e+00 2.4796829811228775e+01 1.4181955923509593e+00 0 0 0
817 1 1.7947979740480513e+00 1.2216308644437833e+01 1.4810668753480924e+01 0 0 0
1695 1 1.8786188337642880e+01 3.7863162038508182e+00 1.4565872927892103e+01 0 1 0
3228 1 5.4102908494882307e+00 9.7315516733205616e+00 1.6691728049393646e+01 1 1 0
1556 1 2.3829364711669538e+01 2.7949980655308986e+00 3.2714250810242018e-01 0 1 1
994 1 9.0588271021658429e+00 1.1143703690906895e+01 1.4067641181994890e+01 0 0 1
2716 1 1.1386209282816134e+01 1.0346323368438544e+01 1.5028041479279524e+01 1 0 0
431 1 1.5578651661712717e+01 1.0908681623798472e+01 1.4372455693595324e+01 0 0 0
1033 1 2.3532271580150343e+00 2.0675807477254608e+01 1.4805201975024275e+01 0 0 0
554 1 1.9792155731936763e+01 9.2267974040306466e+00 1.4891226972288147e+01 0 0 0
1110 1 1.4853027066411858e+01 2.3127085209656077e+01 1.3802514034736662e+01 0 0 0
945 1 9.8410113746166221e+00 1.4400242784021778e+01 1.6967985823086178e+01 0 0 0
570 1 4.0811693898185659e+00 1.5560716288397236e+01 1.6500071717177292e+01 0 0 0
3411 1 1.5961811553127099e+01 2.2492322071539963e+00 1.6959614021840181e+01 0 0 0
1446 1 7.8668340488775073e+00 1.2625209665796193e+01 1.6063609747208339e+01 0 0 0
1630 1 2.1429214194816375e+01 4.0717659570221825e+00 1.5563894743310007e+01 0 1 0
371 1 1.2588927334130057e+01 9.8756814376616986e-01 3.1789833693788783e+00 0 0 0
1401 1 1.7361585518462810e+01 1.4196946262260122e+01 1.5442474391746050e+01 0 0 0
3060 1 1.9743893629704736e+01 1.3367793587318838e+01 1.7111363208555360e+01 0 0 1
69 1 2.3834301440414727e+01 1.4066537746557790e+01 1.5578005596403514e+01 0 0 0
3471 1 1.2540897674568095e+01 1.8339943753247287e+01 1.6506568221900462e+01 0 0 0
304 1 8.1124539222961243e+00 2.6704235483377659e-01 9.2335168578291373e+00 0 0 0
754 1 3.2612934496560468e+00 1.7503116849894667e+01 1.4852649561315028e+01 0 0 0
1089 1 9.9544126780046831e+00 1.8151609328272116e+01 1.5264430127670781e+01 0 0 0
237 1 1.8947302804549189e+01 2.1258318965171295e+01 1.4817274125236771e+01 0 -1 0
1460 1 2.0068860973985540e+01 1.8553771513680800e+01 1.4357142369387457e+01 0 1 0
883 1 1.9967376709792134e+01 9.0507559257176098e+00 3.8522489678090877e-01 0 0 1
1016 1 1.5914447705492115e+01 1.6457304504351974e+01 1.6281130969525407e+01 0 0 0
129 1 1.0816594599998830e+01 2.5277098642192410e+01 8.5801308319247926e+00 0 0 0
3771 1 2.0339686368417453e+00 1.0547818603119222e+01 3.0364227125133580e-01 1 0 0
353 1 1.8771745739138928e+00 8.5101871273345797e-01 7.9496459805983688e-01 0 0 0
463 1 1.4199378489195542e+01 1.2076205225070421e+01 1.6642834497486852e+01 0 0 0
750 1 2.0391927745790430e+00 2.4430724309897872e+01 1.7130521965726253e+01 0 0 0
2916 1 1.5339130942989883e+01 8.0441479924357857e+00 3.6740145658837320e-01 1 0 1
3707 1 2.4352638491898976e+01 2.7690497391934343e-01 1.1440736953255964e+01 0 1 0
2753 1 2.8923551558977314e+00 1.0979734305774665e+01 1.6966391342739296e+01 1 0 0
587 1 9.7892822078191131e+00 2.4561874220253113e+01 1.7080566510377359e+01 0 0 0
2675 1 1.4190417997824343e+00 3.1223266170876842e+00 1.6862730550741826e+01 1 0 0
1197 1 5.1588353357401830e+00 3.7003569324863297e+00 2.0714022291619457e+01 0 1 0
3688 1 9.3655128019756368e+00 1.1984319548647755e+00 2.0736632517034870e+01 1 1 0
1690 1 1.4557428121908616e+01 1.7023266557184051e+00 1.9073325588683897e+01 0 1 0
116 1 1.9764717852084768e+01 3.5350220598091702e+00 1.9334139923078297e+01 0 0 0
2217 1 4.6485757460998913e+00 2.4056019456204272e+01 1.8029105209032963e+01 1 0 0
2700 1 1.2038509788465911e+01 2.3987168927813411e+01 2.4912738524393266e+01 1 0 0
1970 1 1.8866380555678013e+01 5.1084223132019246e-01 2.3634443253175089e+01 0 1 0