
# Create simulation box and atoms
lattice		    sc 1
Lattice spacing in x,y,z = 1 1 1
region 		    all block 0 51.42 0 51.42 0 51.42 units box
create_box 	    1 all
Created orthogonal box = (0 0 0) to (51.42 51.42 51.42)
  2 by 2 by 3 MPI processor grid

create_atoms	1 random 4457 ${SEED} all
create_atoms	1 random 4457 14211 all
Created 4457 atoms
  create_atoms CPU = 0.000429392 secs

mass		    1 18.15

# Define potential

pair_style 	    sw
pair_coeff	    * * mW_real.sw mW
Reading potential file mW_real.sw with DATE: 2019-02-27

# Run minimization

minimize 	    1.0e-8 1.0e-8 10000 1000
WARNING: Using 'neigh_modify every 1 delay 0 check yes' setting during minimization (../min.cpp:168)
Neighbor list info ...
  update every 1 steps, delay 0 steps, check yes
  max neighbors/atom: 2000, page size: 100000
  master list distance cutoff = 6.3065
  ghost atom cutoff = 6.3065
  binsize = 3.15325, bins = 17 17 17
  1 neighbor lists, perpetual/occasional/extra = 1 0 0
  (1) pair sw, perpetual
      attributes: full, newton on
      pair build: full/bin/atomonly
      stencil: full/bin/3d
      bin: standard
Per MPI rank memory allocation (min/avg/max) = 4.225 | 4.228 | 4.23 Mbytes
Step Temp E_pair E_mol TotEng Press 
       0            0    2225902.4            0    2225902.4    1621851.5 
     710            0   -50183.109            0   -50183.109   -1204.8244 
Loop time of 1.94346 on 12 procs for 710 steps with 4457 atoms

99.3% CPU use with 12 MPI tasks x no OpenMP threads

Minimization stats:
  Stopping criterion = max force evaluations
  Energy initial, next-to-last, final = 
         2225902.44158     -50182.8367329     -50183.1094804
  Force two-norm initial, final = 8.59285e+06 4.4738
  Force max component initial, final = 3.34145e+06 0.846508
  Final line search alpha, max atom move = 0.08322 0.0704464
  Iterations, force evaluations = 710 1001

MPI task timing breakdown:
Section |  min time  |  avg time  |  max time  |%varavg| %total
---------------------------------------------------------------
Pair    | 1.4732     | 1.6305     | 1.8621     |   8.4 | 83.90
Neigh   | 0.023338   | 0.024615   | 0.025861   |   0.5 |  1.27
Comm    | 0.032335   | 0.26462    | 0.42367    |  20.9 | 13.62
Output  | 0          | 0          | 0          |   0.0 |  0.00
Modify  | 0          | 0          | 0          |   0.0 |  0.00
Other   |            | 0.02368    |            |       |  1.22

Nlocal:    371.417 ave 393 max 354 min
Histogram: 1 0 1 3 3 2 1 0 0 1
Nghost:    1062.83 ave 1085 max 1039 min
Histogram: 1 1 0 2 2 2 0 2 0 2
Neighs:    0 ave 0 max 0 min
Histogram: 12 0 0 0 0 0 0 0 0 0
FullNghs:  12015.8 ave 13042 max 11263 min
Histogram: 1 0 3 1 4 1 1 0 0 1

Total # of neighbors = 144190
Ave neighs/atom = 32.3514
Neighbor list builds = 37
Dangerous builds = 0

# Create Cavity with Hard sphere "indent" potential

region		    cavity sphere 25.71 25.71 25.71 13.8 side in
delete_atoms	    region cavity
Deleted 360 atoms, new total = 4097
fix 		    5 all indent 10.0 sphere 25.71 25.71 25.71 13.8

# Equilibration of molecular water

# Add velocity/set timestep

velocity	    all create ${TEMP} ${SEED} rot yes dist gaussian
velocity	    all create 215 ${SEED} rot yes dist gaussian
velocity	    all create 215 14211 rot yes dist gaussian
timestep	    5.0

# Define output

compute			1 all msd
thermo	    	50
thermo_style	custom step temp press vol etotal ke pe c_1[4]

# Neighbor lists

neigh_modify    delay 0 every 1 check yes

# Set fixes

fix             1 all momentum 10 linear 1 1 1 rescale
fix             2 all nve
fix             3 all temp/csvr ${TEMP} ${TEMP} 500.0 ${SEED}
fix             3 all temp/csvr 215 ${TEMP} 500.0 ${SEED}
fix             3 all temp/csvr 215 215 500.0 ${SEED}
fix             3 all temp/csvr 215 215 500.0 14211
fix             4 all press/berendsen iso ${PRES} ${PRES} 1000.0 modulus 20000
fix             4 all press/berendsen iso 1.0 ${PRES} 1000.0 modulus 20000
fix             4 all press/berendsen iso 1.0 1.0 1000.0 modulus 20000

# Run 1 ns equilibration

dump		    1 all atom 2000 ${DIR}/eq.${NAME}-${TEMP}.dump
dump		    1 all atom 2000 run_4/eq.${NAME}-${TEMP}.dump
dump		    1 all atom 2000 run_4/eq.hardcavity_freeze_4-${TEMP}.dump
dump		    1 all atom 2000 run_4/eq.hardcavity_freeze_4-215.dump

reset_timestep  0

run	            200000
Per MPI rank memory allocation (min/avg/max) = 4.49 | 4.492 | 4.494 Mbytes
Step Temp Press Volume TotEng KinEng PotEng c_1[4] 
       0          215   -416.02321    135955.32   -42988.886    2625.0206   -45613.906            0 
      50    133.86454   -255.19437    135874.09   -42404.455    1634.4055   -44038.861   0.22632689 
     100    152.53224   -131.48637    135543.09   -41992.964    1862.3269    -43855.29   0.40498832 
     150    167.60342   -146.44829    135245.99   -41632.613    2046.3369    -43678.95   0.58294914 
     200    177.81691   -110.60823    135076.98   -41379.127    2171.0374   -43550.164   0.73760316 
     250    184.59171   -92.912036    134853.72   -41163.813    2253.7536   -43417.567   0.92110801 
     300    193.97483   -94.173844    134640.51   -40980.099    2368.3159   -43348.415    1.0886942 
     350    197.50198   -114.37117     134502.2   -40846.476    2411.3802   -43257.856    1.2245332 
     400    206.58967    -77.51703    134517.27   -40691.177    2522.3354   -43213.512    1.3918393 
     450    208.35989     103.6891    134621.12   -40656.484    2543.9488   -43200.433    1.5242193 
     500    211.39324   -188.60492    134560.71   -40563.501    2580.9842   -43144.485    1.6704456 
     550    210.49229   -64.153428    134529.66   -40563.895    2569.9841   -43133.879     1.826902 
     600    213.67689   -22.279103    134288.54   -40542.618    2608.8661   -43151.484    1.9888622 
     650    214.40313   -125.55772    134169.62   -40535.409    2617.7331   -43153.142     2.191388 
     700    211.31066   -74.940311    134061.47   -40498.318     2579.976   -43078.294    2.4761916 
     750    213.95036   -220.31513    133787.79    -40548.83    2612.2051   -43161.035    2.6981009 
     800    216.38292   -250.55554    133408.63   -40542.888    2641.9052   -43184.793    2.9271765 
     850    211.46093   -115.98958     133206.4   -40572.942    2581.8106   -43154.753    3.1228148 
     900      211.561    17.836404    133110.17   -40591.074    2583.0325   -43174.106    3.3253713 
     950    210.59439    82.709999    132965.25   -40555.265    2571.2308   -43126.496    3.5118284 
    1000    214.98688   -144.96362    132858.71   -40551.725    2624.8604   -43176.585    3.7543428 
    1050    216.07173    15.503703    132663.01   -40537.995    2638.1058   -43176.101     3.996976 
    1100    216.06217   -131.05157    132558.59   -40508.171     2637.989    -43146.16    4.1651063 
    1150    214.75493    -28.61062    132507.09   -40513.721    2622.0284    -43135.75     4.401915 
    1200    217.87496    89.172058    132416.75   -40511.593    2660.1221   -43171.715     4.600954 
    1250     215.0333    175.61516    132460.66   -40470.144    2625.4272   -43095.571    4.8358891 
    1300    219.53932   -92.538298    132469.27     -40474.1    2680.4429   -43154.543    5.0359709 
    1350    216.85247    103.13958    132567.34   -40452.257    2647.6381   -43099.895    5.2250143 
    1400    218.13793    53.531529    132611.05   -40530.202    2663.3328   -43193.535    5.3725628 
    1450    216.81516   -250.18182    132591.76   -40566.787    2647.1826    -43213.97    5.6021489 
    1500    213.60294     1.893426    132450.05   -40515.525    2607.9633   -43123.488    5.8355979 
    1550    214.63969   -273.70283    132278.25   -40526.287    2620.6213   -43146.908    6.0591832 
    1600     220.3842    165.46532    132154.79   -40519.551    2690.7583    -43210.31    6.2280532 
    1650    215.64009   -58.671466    132251.98   -40544.944    2632.8357    -43177.78    6.4072344 
    1700    208.98838   -2.3106635    132217.42   -40559.179    2551.6223   -43110.801    6.5999849 
    1750    214.17238    45.428809     132104.9   -40586.223    2614.9158   -43201.139    6.7551694 
    1800    212.80683   -30.038573    132112.23   -40587.531    2598.2433   -43185.775    6.8089799 
    1850    213.98061   -104.76164    132120.18   -40567.404    2612.5744   -43179.979     7.001265 
    1900    217.84657    64.461007    132134.17   -40495.948    2659.7754   -43155.724    7.1099185 
    1950    215.03733    50.481968    132155.87   -40543.922    2625.4763   -43169.398     7.323263 
    2000    210.97133   -43.973294     132043.6   -40578.637    2575.8329    -43154.47    7.5514763 
    2050     212.3724   -122.70431    131956.86   -40570.913    2592.9392   -43163.852    7.7036031 
    2100    216.81594   -182.66915    131964.59   -40562.666    2647.1921   -43209.858    7.8348551 
    2150    215.00346    280.84007    132034.49   -40571.119    2625.0628   -43196.182    7.9854147 
    2200    216.08121     11.48215    132160.19   -40566.459    2638.2214   -43204.681    8.1405806 
    2250     219.5018    101.97431    132272.87   -40547.871    2679.9848   -43227.856    8.3118933 
    2300    214.45412   -90.759213    132272.82   -40552.622    2618.3556   -43170.978    8.4809703 
    2350     217.1495   -6.1532033    132180.81   -40586.797    2651.2647   -43238.061    8.6424956 
    2400    213.45783    -38.97543    132244.82   -40578.421    2606.1916   -43184.613    8.8655572 
    2450    217.00126   -41.607456    132157.38   -40563.878    2649.4547   -43213.333    8.9787048 
    2500    211.38127    28.025025    132144.85   -40520.705     2580.838   -43101.543    9.1528505 
    2550    213.94019   -53.086622    132116.61   -40493.134    2612.0809   -43105.215    9.3683562 
    2600    218.97422    92.426635    132110.79   -40506.751    2673.5434   -43180.294    9.5473657 
    2650     213.4251   -76.137011    132223.09   -40540.823    2605.7919   -43146.615    9.7056196 
    2700     216.0139    13.246759    132222.27   -40552.459    2637.3997   -43189.859    9.9901196 
    2750    213.85143   -41.444035    132085.61   -40593.652    2610.9972   -43204.649    10.217116 
    2800    214.23548   -57.162804    132137.03   -40601.867    2615.6863   -43217.553     10.45671 
    2850    215.40628    17.998843    132290.53   -40606.195     2629.981   -43236.176    10.663557 
    2900    214.30827    160.88426    132473.55   -40653.713     2616.575   -43270.288    10.787898 
    2950    215.76294    86.234244    132512.66   -40627.453    2634.3357   -43261.789     10.88835 
    3000    215.75063   -218.88992    132516.57   -40619.969    2634.1853   -43254.154    10.998901 
    3050     214.0889   -57.855618    132334.57   -40680.471    2613.8965   -43294.367    11.082667 
    3100    214.01335   -21.308074    132419.08   -40660.508    2612.9742   -43273.482    11.365713 
    3150    214.32828   -66.711201    132388.57    -40672.22    2616.8192   -43289.039    11.603081 
    3200    211.47684    21.999179    132322.23   -40711.166    2582.0049   -43293.171    11.772145 
    3250    213.55376    107.87348    132330.11   -40687.347    2607.3629    -43294.71    11.903053 
    3300    215.90683   -1.6349312    132572.62   -40610.278    2636.0924   -43246.371    12.008911 
    3350     214.4158   -93.321512    132518.39   -40640.528    2617.8878   -43258.415    12.148103 
    3400    216.32108   -30.041968    132431.43   -40667.668    2641.1501   -43308.818    12.332665 
    3450    214.59335     81.94054    132460.57   -40686.091    2620.0556   -43306.147    12.480366 
    3500    218.14539    8.1441253    132537.93   -40608.561    2663.4239   -43271.985    12.767948 
    3550    216.18909     3.014929    132626.45   -40573.315    2639.5387   -43212.854    12.994597 
    3600    214.61482    68.188587    132638.79   -40598.911    2620.3177   -43219.228    13.106002 
    3650    216.38801   -120.42745    132591.82   -40581.726    2641.9673   -43223.693    13.230472 
    3700    215.03892   -34.512944    132563.99       -40624    2625.4958   -43249.496    13.248912 
    3750    212.51427    126.51409    132589.21   -40631.996    2594.6713   -43226.667    13.326075 
    3800    218.34094    150.78549    132700.72   -40625.181    2665.8114   -43290.992    13.486032 
    3850    217.76614   -156.19462    132660.02   -40659.756    2658.7935    -43318.55    13.654271 
    3900    216.52938   -191.63998    132497.89   -40667.229    2643.6934   -43310.922    13.862708 
    3950    217.75602   -158.99951    132360.35   -40648.694    2658.6699   -43307.364    14.125498 
    4000    212.64421    97.648333     132252.9   -40648.009    2596.2578   -43244.267    14.377503 
    4050    212.09748   -120.68965    132319.75   -40685.863    2589.5825   -43275.446    14.512235 
    4100    212.01379    157.65265    132362.49   -40717.356    2588.5607   -43305.917    14.659079 
    4150    211.95461   -53.161413    132412.52   -40762.559    2587.8382   -43350.397    14.903238 
    4200    212.47225    159.33213    132520.21    -40731.84    2594.1583   -43325.998    15.070402 
    4250    210.48994     20.63795    132627.16    -40737.74    2569.9554   -43307.695    15.199645 
    4300     213.7386   -35.044074    132484.12   -40652.717    2609.6196   -43262.337    15.306022 
    4350    214.54718   -1.3148858     132410.2   -40674.176    2619.4919   -43293.668    15.477661 
    4400    214.38355    60.237481    132473.48   -40665.912    2617.4941   -43283.406    15.697989 
    4450    217.50108   -8.2561761    132504.06   -40649.489    2655.5573   -43305.046    15.858783 
    4500    216.89277     -194.343    132392.89   -40648.971    2648.1302   -43297.101    16.043342 
    4550    219.23643    5.1001577    132321.42   -40630.286    2676.7449   -43307.031    16.128863 
    4600    213.69617    23.497453    132221.82   -40633.059    2609.1016   -43242.161    16.340955 
    4650     214.3056    208.60044    132385.13   -40620.769    2616.5424   -43237.311    16.538054 
    4700    215.60587    179.15766    132423.99   -40625.744    2632.4179   -43258.162    16.758777 
    4750    219.80264    34.180369    132566.67   -40636.846    2683.6579   -43320.504    16.879611 
    4800    221.22217   -24.745946    132527.83   -40664.606    2700.9895   -43365.596    17.139058 
    4850    219.17858   -57.680982     132603.9   -40669.867    2676.0385   -43345.905    17.282802 
    4900    214.63533   -222.42886    132429.17   -40689.005    2620.5682   -43309.573    17.493226 
    4950    216.98696   -158.21292     132204.1   -40728.544    2649.2801   -43377.825    17.677184 
    5000    216.12579    91.091684    132236.79   -40680.914    2638.7658    -43319.68    17.871044 
    5050    215.31757    55.901773    132186.29   -40695.406    2628.8979   -43324.304    18.062244 
    5100    214.40609    12.968764    132259.73   -40707.575    2617.7692   -43325.345    18.238445 
    5150    213.96927   -1.5578047    132212.36   -40702.548    2612.4359   -43314.984    18.476159 
    5200     214.0511   -233.70856    132037.16   -40738.144    2613.4351   -43351.579    18.655943 
    5250    217.00193   -28.688773    131992.62   -40692.225    2649.4629   -43341.688    18.725088 
    5300    215.31804    15.685418    132181.22   -40674.055    2628.9037   -43302.959     18.77002 
    5350    212.53394    123.95546    132174.79   -40646.774    2594.9114   -43241.685    18.934196 
    5400    219.13205   -29.550483    132053.51    -40661.51    2675.4704    -43336.98    19.170001 
    5450    215.04377   -151.39899     132068.1   -40720.929     2625.555   -43346.484    19.384821 
    5500    215.96305    171.25134    132185.96   -40713.099    2636.7788   -43349.878      19.5022 
    5550    209.23797   -106.15098    132135.32   -40682.036    2554.6697   -43236.706    19.674318 
    5600    212.63471   -139.27517    131958.52   -40756.563    2596.1418   -43352.705    19.784716 
    5650    214.09816    107.25636    132002.39   -40765.077    2614.0096   -43379.086    19.989392 
    5700    213.38914   -5.0033213    132064.45   -40768.227    2605.3529   -43373.579    20.199299 
    5750    214.50871    25.146841    131914.53   -40728.927    2619.0222    -43347.95    20.425131 
    5800    213.19981    50.846899    131918.32   -40725.649    2603.0413    -43328.69    20.571071 
    5850    215.72927    -47.22142    131970.01   -40758.725    2633.9245   -43392.649    20.733947 
    5900    214.41869    5.5392846    131945.02   -40775.559    2617.9231   -43393.482     20.85207 
    5950    212.14133    181.10475    131977.92     -40772.8     2590.118   -43362.918    20.989148 
    6000    215.98453    69.368159    131932.08   -40742.756    2637.0411   -43379.797     21.15575 
    6050    212.13565    5.7150551    131895.72   -40719.788    2590.0485   -43309.837    21.334825 
    6100    216.95346   -157.45607    131832.09   -40668.388    2648.8712   -43317.259    21.382644 
    6150    217.02377   -57.159293    131793.48   -40721.938    2649.7296   -43371.667     21.54359 
    6200    215.18221    92.904352    131800.56   -40731.178    2627.2452   -43358.423    21.662562 
    6250    214.51416    84.628572    131958.37   -40697.231    2619.0888    -43316.32     21.88079 
    6300    214.97304   -6.7300755    132002.73   -40698.378    2624.6914    -43323.07     22.07304 
    6350    218.21433    73.655801    132122.35   -40641.778    2664.2655   -43306.044     22.20208 
    6400    221.32412    202.63093    132134.78   -40659.428    2702.2342   -43361.662     22.46976 
    6450    214.42599    208.42177    132373.32   -40672.315    2618.0122   -43290.328     22.72777 
    6500    213.75498    -16.56302    132342.64   -40656.676    2609.8196   -43266.496    22.856018 
    6550     213.2982    62.507055    132349.53   -40697.322    2604.2426   -43301.564    23.117323 
    6600    217.40162    -36.39193     132372.1   -40756.707    2654.3429    -43411.05    23.268838 
    6650    214.33679    60.687827    132480.69   -40772.886    2616.9231   -43389.809    23.540624 
    6700    209.97541   -15.175675    132637.24   -40773.392    2563.6734   -43337.065    23.699657 
    6750    217.68793   -161.05476    132605.59   -40741.077    2657.8385   -43398.916     23.78137 
    6800    213.60987   -218.00026    132334.06    -40738.89     2608.048   -43346.938    23.932851 
    6850     215.4965    64.564133    132215.48   -40721.418    2631.0826     -43352.5    24.106913 
    6900    217.19227    10.265508    132225.79   -40703.672    2651.7869   -43355.459    24.194497 
    6950    217.82154    -126.6001    132151.45   -40699.905    2659.4699   -43359.374    24.203939 
    7000    217.20446    9.3432497    132083.36   -40735.608    2651.9357   -43387.543    24.384708 
    7050    214.48462   -25.570235     132094.4   -40742.431    2618.7281   -43361.159    24.438963 
    7100    215.71464    38.078897    131984.97   -40719.508    2633.7459   -43353.253    24.728079 
    7150    217.99923   -2.3316538    131998.83   -40694.446    2661.6393   -43356.086    24.929532 
    7200    215.96724   -26.519261    131916.49    -40711.03      2636.83    -43347.86    25.073373 
    7250    218.22924   -80.348138    132010.29   -40683.079    2664.4477   -43347.527    25.135381 
    7300    218.20239    82.285949     132022.4   -40685.071    2664.1199   -43349.191      25.2797 
    7350     211.6545   -110.69278     132073.8   -40708.106     2584.174    -43292.28    25.408163 
    7400    214.81756    -18.37827    131954.91   -40732.717    2622.7931    -43355.51    25.583134 
    7450    214.31577    6.8824832    131853.48   -40729.944    2616.6665    -43346.61     25.85163 
    7500    211.82247    25.328652    131630.58   -40714.113    2586.2248   -43300.338    25.952782 
    7550    216.94995    85.366714     131752.9   -40674.824    2648.8283   -43323.652    26.190183 
    7600    212.46811   -35.235214    131823.61   -40726.394    2594.1077   -43320.502    26.372915 
    7650    212.38231   -129.53752     131778.8    -40712.47    2593.0601    -43305.53    26.405519 
    7700    215.66739    132.22014    131735.35   -40684.332    2633.1689   -43317.501    26.664296 
    7750    217.09081   -154.71963     131801.2   -40642.299    2650.5481   -43292.847    26.799044 
    7800    217.55456    127.20304    131878.18   -40657.219    2656.2102   -43313.429    26.990482 
    7850    218.57002    44.950843    131981.62   -40641.761    2668.6083   -43310.369    27.186318 
    7900    217.81328   -32.393284    131892.25   -40625.851    2659.3691    -43285.22    27.401034 
    7950    217.45863   -46.274297    131787.51   -40608.385     2655.039   -43263.424     27.54509 
    8000    214.65244   -90.130615    131622.77   -40643.718     2620.777   -43264.495     27.68994 
    8050     216.7875    25.758594     131600.8     -40668.1    2646.8448   -43314.945    27.868889 
    8100    213.63285    193.51739    131702.21   -40691.983    2608.3284   -43300.311    27.884831 
    8150    214.24653   -15.582233    131690.57   -40722.846    2615.8211   -43338.667    28.005362 
    8200    212.86184    102.83778     131676.5   -40756.525    2598.9149    -43355.44    28.196908 
    8250    211.94931    238.04899     131817.8    -40736.53    2587.7735   -43324.304     28.41753 
    8300    217.63592    183.81333    132019.74   -40667.362    2657.2035   -43324.565    28.523347 
    8350     213.8513   -17.406623    132196.25   -40700.422    2610.9956   -43311.417    28.607008 
    8400    210.48357    -71.18783     132011.5   -40728.076    2569.8776   -43297.954    28.816675 
    8450    214.89507    128.15895    131948.63   -40737.055    2623.7394   -43360.794    28.988025 
    8500    214.18566     109.5243     131939.7   -40720.703     2615.078    -43335.78    29.111593 
    8550    212.31899     15.44855    131874.25   -40765.939     2592.287   -43358.226     29.22259 
    8600    213.00238   -137.98644    131793.89   -40764.725    2600.6308   -43365.356    29.415278 
    8650    214.10435    190.85229    131827.66   -40678.685    2614.0852    -43292.77    29.684589 
    8700    219.37671   -27.097515    131936.38   -40694.927    2678.4575   -43373.384    29.902828 
    8750    216.92683   -97.631992    131932.46   -40706.056     2648.546   -43354.602    30.256065 
    8800    216.04339   -100.72928    131819.63   -40738.715    2637.7598   -43376.475    30.548773 
    8850    209.90382   -136.89533    131680.63    -40706.19    2562.7993    -43268.99    30.716628 
    8900    215.03993    179.30568    131654.21   -40707.194    2625.5081   -43332.702    30.824867 
    8950    214.68042   -118.91015    131639.27   -40721.362    2621.1187    -43342.48    31.056442 
    9000    211.23398    74.607883    131694.81   -40712.821    2579.0398   -43291.861    31.319662 
    9050    212.69026    105.54363    131809.91   -40668.639      2596.82   -43265.459    31.453228 
    9100    215.59807   -33.629148    131887.15   -40681.331    2632.3227   -43313.653    31.491779 
    9150    213.43765     153.1477    131954.37   -40691.185    2605.9452    -43297.13    31.706925 
    9200    214.64728     23.51294    132105.15   -40657.475    2620.7141   -43278.189    31.813485 
    9250     217.1305   -22.261655    132146.82   -40651.505    2651.0327   -43302.537    31.885958 
    9300    215.88494   -50.656204    132210.17   -40692.057    2635.8252   -43327.882    31.894965 
    9350    214.36797   -47.191221    132149.78   -40665.068    2617.3039   -43282.372    32.032654 
    9400    216.45285    56.892192     132065.6    -40681.26    2642.7589   -43324.019    32.116718 
    9450    215.06796    92.398698    132176.27   -40649.416    2625.8503   -43275.266    32.225045 
    9500    216.73375   -29.537978    132267.93   -40666.123    2646.1887   -43312.311    32.528022 
    9550    216.27408   -35.988391    132256.52   -40682.432    2640.5763   -43323.008    32.775291 
    9600    215.16521   -75.369418    132179.51    -40678.94    2627.0377   -43305.978    32.899636 
    9650    213.94266   -68.618685    132068.65    -40634.93    2612.1111   -43247.041    33.140497 
    9700    213.35938    52.336671    132047.62   -40669.065    2604.9896   -43274.055    33.424522 
    9750    213.21462   -102.38534    132233.59   -40696.067    2603.2221   -43299.289     33.48596 
    9800    214.34255     102.6077    132411.49   -40686.987    2616.9935    -43303.98    33.627865 
    9850    214.43353    62.992145    132400.19   -40704.847    2618.1043   -43322.952    33.763934 
    9900    209.95138   -22.895347    132335.48   -40751.627      2563.38   -43315.007    33.821923 
    9950    213.32444   -126.30572    132290.34    -40699.26     2604.563   -43303.823    33.981278 
   10000    212.08661   -49.883855    132279.19   -40688.845    2589.4498   -43278.295    34.441714 
   10050    216.11406   -23.502493    132269.78   -40716.715    2638.6225   -43355.337    34.564918 
   10100    214.34497    -139.8903    132125.64   -40712.476    2617.0231   -43329.499    34.875509 
   10150    212.10051    36.784419    132045.88     -40720.2    2589.6195   -43309.819     35.17461 
   10200    213.12897    118.74747    132118.94   -40709.647    2602.1765   -43311.824    35.282899 
   10250    211.17731    62.336732    132137.43   -40707.229    2578.3478   -43285.577    35.472188 
   10300    215.27283   -112.03195    132063.71   -40656.208    2628.3516   -43284.559    35.531226 
   10350    216.34084   -183.85878     131880.5   -40628.361    2641.3914   -43269.752    35.647725 
   10400    217.91515    72.094448    131711.28   -40619.803    2660.6127   -43280.416    35.816467 
   10450    216.24534    91.451178    131789.61   -40633.757    2640.2254   -43273.982    35.997788 
   10500    215.85118    118.53128    131955.19   -40616.431     2635.413   -43251.844    36.290508 
   10550    210.99761   -167.84174     131922.7   -40645.971    2576.1537   -43222.125    36.371806 
   10600     214.0104   -64.025341     131707.2   -40668.601    2612.9381   -43281.539     36.49211 
   10650    212.32716   -102.79479    131694.71   -40658.818    2592.3868   -43251.205    36.700438 
   10700    214.20591   -73.232702    131631.18   -40673.693    2615.3252   -43289.018    36.914711 
   10750    212.39084   -80.768613    131549.67   -40686.334    2593.1643   -43279.498    37.010504 
   10800     213.2635     31.10023    131477.81   -40707.485    2603.8189   -43311.304    37.193161 
   10850    210.04787    37.451621    131537.88   -40703.321    2564.5581   -43267.879    37.444303 
   10900    215.99603   -2.4792906    131526.99   -40719.211    2637.1815   -43356.393    37.596729 
   10950    217.24901    140.30454    131587.78   -40648.378    2652.4796   -43300.858    37.659548 
   11000    215.28553     85.05117    131754.14   -40644.854    2628.5067   -43273.361    37.677093 
   11050    214.91438    215.98363    131962.67   -40654.497    2623.9752   -43278.472    37.705725 
   11100    212.45456   -4.5963666    132090.35   -40680.992    2593.9423   -43274.934    37.684526 
   11150    209.08178    23.994949    132061.14   -40703.777    2552.7627    -43256.54    37.730272 
   11200    214.23945   -21.001289    132046.72   -40736.965    2615.7347     -43352.7    37.882637 
   11250    211.95534    251.88345     132065.1   -40736.424    2587.8471   -43324.271    37.891115 
   11300    215.59166    16.300102    132198.94    -40727.34    2632.2444   -43359.584    38.078318 
   11350    214.20277    42.457635    132112.74   -40729.869    2615.2869   -43345.155    38.142169 
   11400    214.53584   -38.671336    132113.15   -40724.924    2619.3535   -43344.278     38.26197 
   11450    211.22364    -51.46696    132013.78   -40748.125    2578.9135   -43327.039    38.258595 
   11500    213.34912     42.07773    132103.33   -40714.981    2604.8643   -43319.846    38.409353 
   11550     216.2111    -35.04979    132141.99   -40657.751    2639.8074   -43297.558    38.442131 
   11600    217.59679    96.261455    132127.43   -40674.401    2656.7258   -43331.126    38.627581 
   11650    215.23278   -144.35046    132229.72   -40680.118    2627.8627    -43307.98    38.878896 
   11700    216.65005   -52.967882    132084.11   -40651.341    2645.1667   -43296.508    39.171563 
   11750    215.45188   -34.235373    131903.36   -40694.937    2630.5378   -43325.474    39.210229 
   11800    218.48458    19.940929    131924.18   -40714.665    2667.5652    -43382.23    39.331265 
   11850    211.18022    83.852869    132002.48   -40778.278    2578.3833   -43356.662    39.634853 
   11900    214.76363    106.67574    132123.81    -40733.27    2622.1346   -43355.404    39.834799 
   11950    213.04887   -110.75414    132119.45   -40705.114    2601.1985   -43306.312    39.989933 
   12000    213.13397    6.8852299    132088.17   -40651.505    2602.2375   -43253.743    40.087455 
   12050    214.75666   -19.907145    131987.61   -40631.149    2622.0495   -43253.198    40.169215 
   12100    213.78641    -17.55043     131898.1   -40621.006    2610.2033   -43231.209    40.299386 
   12150     218.5468   0.64457448    131879.47   -40619.217    2668.3248   -43287.542    40.404408 
   12200    215.44412    42.897196    131964.33   -40630.597     2630.443    -43261.04    40.472413 
   12250    214.00671   -97.931219    131968.84   -40651.996    2612.8931   -43264.889    40.720804 
   12300    218.67959   -16.565699    132051.22   -40670.239    2669.9461   -43340.185    41.019173 
   12350    212.00184    23.783215    132073.55   -40757.567    2588.4148   -43345.982    41.037224 
   12400    212.34667    133.94356    132201.26   -40737.873     2592.625   -43330.498    41.153249 
   12450    216.97212   -13.927633    132195.83   -40754.034     2649.099   -43403.133    41.299891 
   12500    217.25579    -20.61978    132248.47   -40744.742    2652.5624   -43397.304    41.560411 
   12550    219.25255   -100.91025    132174.15   -40728.931    2676.9416   -43405.872    41.671322 
   12600    215.34784    71.444935    132159.47   -40732.651    2629.2675   -43361.918    41.732021 
   12650    219.74392    4.3073033    132154.57   -40696.517     2682.941   -43379.458    41.869071 
   12700    214.87781     6.118728    132172.17   -40741.798    2623.5287   -43365.326    41.877683 
   12750    217.23418    69.428186    132299.89   -40763.258    2652.2986   -43415.557    42.182085 
   12800    208.64971   -115.54923    132234.14   -40740.619    2547.4873   -43288.107    42.479331 
   12850    213.30327    27.305607    132056.69   -40707.836    2604.3045   -43312.141    42.500901 
   12900    214.36788   -81.071334    132152.93   -40732.256    2617.3027   -43349.558    42.505071 
   12950    214.37125    14.071739    132355.61   -40660.382    2617.3439   -43277.726    42.722849 
   13000    213.87459   -155.68089    132185.24   -40728.318      2611.28   -43339.598    42.826334 
   13050    212.72551   -64.360412    132075.81   -40697.108    2597.2504   -43294.359    42.966553 
   13100    217.15033    83.738716     131975.5   -40711.267    2651.2748   -43362.542    43.272016 
   13150    213.03725   -101.75535    132024.25    -40734.97    2601.0565   -43336.026    43.441207 
   13200    210.66547   -11.325952    131957.51   -40745.145    2572.0986   -43317.243    43.626167 
   13250    208.83426    10.838958     132111.1   -40739.306    2549.7406   -43289.046    43.828383 
   13300    217.05963   -43.971253    132253.58     -40750.1    2650.1675   -43400.267    44.028321 
   13350    217.89488    101.27694    132344.79   -40704.463    2660.3653   -43364.828    44.282338 
   13400    215.74789    45.219988     132346.4   -40723.727    2634.1519   -43357.879    44.441261 
   13450    217.76275     10.20579    132318.06   -40702.852     2658.752   -43361.604    44.520153 
   13500    216.06168   -29.441867    132334.59   -40706.612    2637.9831   -43344.595    44.732971 
   13550    214.70346    108.63644    132399.88   -40685.984       2621.4   -43307.384    44.976666 
   13600    212.90157   -61.193183    132360.54   -40756.016       2599.4   -43355.416     45.11938 
   13650    217.15806   -8.9721917    132396.14   -40739.309    2651.3691   -43390.678    45.355281 
   13700    216.28238   -55.861285    132252.11   -40704.462    2640.6776    -43345.14    45.534974 
   13750    212.70567    45.685994    132109.95   -40705.954    2597.0082   -43302.962    45.661587 
   13800    216.04014    14.227946    132150.98   -40703.426      2637.72   -43341.146    45.904762 
   13850    215.57424    71.281739    132245.87   -40694.258    2632.0317   -43326.289    45.990164 
   13900    218.57366     2.806498    132293.11   -40677.185    2668.6528   -43345.838     46.08854 
   13950    214.07633     53.97403    132304.82   -40641.531    2613.7431   -43255.274    46.323514 
   14000    214.26502   -14.779524    132136.51   -40641.147    2616.0469   -43257.194    46.552331 
   14050    215.58346    75.371548    132093.16    -40688.51    2632.1442   -43320.654    46.688914 
   14100    221.35463    101.29642    132219.81    -40613.75    2702.6068   -43316.357    46.805265 
   14150    212.15691    99.126003    132202.14   -40650.444    2590.3081   -43240.752    47.070717 
   14200    213.15506   -39.042779    132158.43    -40664.76     2602.495   -43267.255    47.391075 
   14250    212.99338     -138.751    132078.62    -40711.13    2600.5209   -43311.651    47.582565 
   14300    216.61232    20.662727    132017.04   -40648.747     2644.706   -43293.453    47.687443 
   14350    219.44674    139.29787    132023.85   -40618.438    2679.3126   -43297.751    48.023395 
   14400    219.18358   -101.09379    132056.23   -40610.968    2676.0995   -43287.067    48.202449 
   14450    216.72108   -84.086694    131920.81   -40679.654    2646.0339   -43325.687    48.438577 
   14500    217.40929    52.621022    132020.11   -40651.938    2654.4365   -43306.374     48.75728 
   14550    216.01795   -234.80111    131892.37   -40703.513    2637.4491   -43340.962    48.808977 
   14600    214.16748    89.683816    131947.19   -40754.497     2614.856   -43369.353    49.058137 
   14650    214.74359    70.119743    131994.28   -40771.637    2621.8899   -43393.527    49.234921 
   14700    213.12816   -52.319346    132082.25   -40766.649    2602.1666   -43368.816    49.264519 
   14750    213.64654   -63.576348    131907.05   -40795.476    2608.4957   -43403.971     49.47982 
   14800    215.70154   -24.119522    132098.73   -40764.789     2633.586   -43398.375    49.520114 
   14850    212.86466    202.92323    132227.95   -40757.704    2598.9494   -43356.654    49.430196 
   14900    212.37357    29.992296    132337.14   -40773.229    2592.9535   -43366.183    49.693696 
   14950    214.84063    5.9264253    132208.43   -40775.663    2623.0747   -43398.738    49.819772 
   15000    212.07331   -13.835584    132329.46   -40825.466    2589.2874   -43414.753    49.861802 
   15050    217.01549   -51.977362     132298.7   -40785.819    2649.6284   -43435.447    49.952288 
   15100    213.45008   -63.144241    132264.42   -40788.246    2606.0969   -43394.342    50.163053 
   15150    211.13101   -34.291007    132147.97   -40806.149    2577.7825   -43383.931    50.369676 
   15200    213.88765   -44.077202    132211.55   -40790.816    2611.4395   -43402.256    50.537914 
   15250    214.88995    13.097292    132232.62   -40774.713    2623.6769    -43398.39    50.714646 
   15300    215.45808   -110.33903    132199.93   -40792.779    2630.6135   -43423.392     50.76317 
   15350    219.30329    131.89884    132088.05   -40749.345    2677.5612   -43426.907    51.047557 
   15400    214.60369   -43.175955    132037.31   -40764.422    2620.1819   -43384.604    51.147923 
   15450    215.43756    32.713404    132028.48   -40800.785    2630.3629   -43431.148    51.327835 
   15500    216.00656    35.184946    132138.32   -40832.554      2637.31   -43469.864    51.482693 
   15550    212.91914    6.1030284    132149.42   -40830.721    2599.6145   -43430.335    51.654889 
   15600    216.59484    99.091492    132196.46   -40806.371    2644.4926   -43450.864    51.653616 
   15650    210.98897   -61.954344    132270.39   -40813.525    2576.0483   -43389.573    51.799958 
   15700    216.33932   -46.055997    132346.94   -40827.317    2641.3729    -43468.69    51.944227 
   15750    216.74841   -90.484421     132159.7   -40801.649    2646.3676   -43448.017    51.856031 
   15800    220.38625    80.304658    132056.17   -40809.868    2690.7834   -43500.651    52.048258 
   15850    221.01838   -26.061963    132136.77   -40780.704    2698.5014   -43479.206    52.415544 
   15900    217.15782    100.04597    132263.13   -40849.316    2651.3663   -43500.683    52.549211 
   15950    214.00095   -42.030346    132215.83   -40884.125    2612.8227   -43496.948    52.610822 
   16000    210.23359   -34.636422    132062.74   -40871.375    2566.8255     -43438.2    52.779571 
   16050    209.72704   -156.06161    131971.37   -40900.276    2560.6409   -43460.917    52.992835 
   16100    215.06492    231.89008    132010.44   -40843.176    2625.8132    -43468.99     53.24481 
   16150    213.60661   -20.775226     132078.5   -40858.447    2608.0082   -43466.455    53.506505 
   16200    212.47161    47.657192    132092.42   -40872.947    2594.1505   -43467.098    53.596204 
   16250    217.04995    95.099449    132164.61   -40859.428    2650.0493   -43509.477    53.712515 
   16300    216.05807   -33.578868    132056.07   -40860.085     2637.939   -43498.024    53.910123 
   16350    218.86147    127.37658    132130.47   -40859.189    2672.1667   -43531.356    54.036202 
   16400     216.1272    8.6043501    132147.93   -40854.682    2638.7829   -43493.465    53.909071 
   16450    213.54954   -32.102507    132200.37    -40839.64    2607.3113   -43446.951    54.074951 
   16500    211.76273    177.15503    132305.16   -40817.638    2585.4954   -43403.133    54.145803 
   16550    216.62093    78.143293    132333.64   -40821.434    2644.8111   -43466.245    54.276127 
   16600    216.87977   -113.39723    132303.05   -40836.441    2647.9714   -43484.412    54.498147 
   16650    211.77267     62.23938    132279.08   -40818.421    2585.6168   -43404.038    54.637938 
   16700    211.96332    7.3146268    132269.99   -40839.286    2587.9445   -43427.231    54.586463 
   16750    210.74066   -23.221957    132301.53   -40846.719    2573.0166   -43419.736    54.675178 
   16800     217.1364     4.661001    132421.61   -40777.887    2651.1047   -43428.992    54.749028 
   16850     221.8595    44.882641    132397.42    -40731.86    2708.7709   -43440.631    55.011754 
   16900    215.41363    163.65998    132410.52    -40734.88    2630.0707   -43364.951    55.354167 
   16950     217.9064   -17.611778    132294.65   -40739.385    2660.5059   -43399.891    55.460945 
   17000    216.77986   -15.344622    132301.88   -40726.728    2646.7516    -43373.48    55.671628 
   17050    218.49534   -159.17287    132127.65   -40717.208    2667.6966   -43384.905     56.02888 
   17100    213.19325   -63.996957    132080.24   -40758.622    2602.9612   -43361.583    56.303913 
   17150    211.45575    31.389167    131938.02   -40776.391    2581.7474   -43358.138    56.484298 
   17200    214.86865     87.24237     132033.9   -40745.766    2623.4169   -43369.183    56.775632 
   17250    216.29639   -16.753914    132142.99   -40747.875    2640.8487   -43388.724    57.071693 
   17300    217.95956    -51.78603    132074.88   -40756.706     2661.155   -43417.861    57.259607 
   17350    217.14728   -75.271837    132102.19   -40749.643    2651.2375   -43400.881     57.45615 
   17400    211.38634   -135.60973    131955.41   -40725.345    2580.8999   -43306.245    57.596412 
   17450    216.79967    213.97782    132045.93   -40693.061    2646.9935   -43340.054    57.671792 
   17500    221.47249    144.56661    132172.14    -40669.77    2704.0458   -43373.815    57.640534 
   17550    218.01751   -36.915631    132274.36   -40719.619    2661.8625   -43381.481    57.797235 
   17600    215.82694   -101.63986    132280.94   -40754.411     2635.117   -43389.528    57.964327 
   17650    214.07359    52.871462    132198.61   -40754.362    2613.7097   -43368.072    58.268113 
   17700    215.07244    -42.91428    132140.79   -40709.062     2625.905   -43334.967    58.294832 
   17750    214.03001    -83.89935    132200.23   -40724.991    2613.1775   -43338.169    58.410986 
   17800    215.35685    55.129677    132214.41    -40722.63    2629.3774   -43352.008    58.605212 
   17850    219.62292    8.8807746    132268.39   -40676.267    2681.4636   -43357.731    58.649283 
   17900    215.30164   -96.366068    132191.84   -40728.504    2628.7034   -43357.207    58.647644 
   17950    216.19012     8.473668    132162.29   -40713.331    2639.5512   -43352.882    58.717614 
   18000    214.04115    5.8015291    131995.99   -40806.085    2613.3136   -43419.399    58.621918 
   18050    218.92635    162.43631    132078.19   -40747.478     2672.959   -43420.437    58.778757 
   18100     216.7592   -15.328198    132149.53    -40736.23    2646.4993    -43382.73    58.935875 
   18150    216.68799    73.467844    132173.66   -40711.371    2645.6299   -43357.001    59.355581 
   18200    217.34675  -0.18155443     132188.2   -40706.319     2653.673   -43359.992    59.547689 
   18250    216.77932    -11.95147    132345.54   -40691.397     2646.745   -43338.142    59.758573 
   18300    214.14927    98.854225    132391.68   -40710.692    2614.6336   -43325.326    59.913556 
   18350    213.52078    43.703004    132217.17   -40733.694    2606.9602   -43340.654    60.036706 
   18400    217.79592    19.241854    132260.99   -40711.517    2659.1571   -43370.674    60.228044 
   18450    217.61899    50.120137    132288.51   -40698.204    2656.9968     -43355.2    60.444122 
   18500    215.08248    78.479747    132328.96   -40744.369    2626.0277   -43370.397    60.772237 
   18550    216.47444   -136.96244    132300.92   -40740.729    2643.0226   -43383.752    60.827101 
   18600    215.11049    77.858758    132237.66   -40760.673    2626.3696   -43387.042    60.789721 
   18650    214.09628   -30.473325    132312.81   -40790.664    2613.9867   -43404.651    60.813908 
   18700    212.80078   -65.058963    132285.75   -40759.002    2598.1694   -43357.172    61.066408 
   18750    211.02377    57.873018    132201.07    -40779.08    2576.4732   -43355.554    60.967648 
   18800    210.14639    18.112403    132121.86   -40760.125     2565.761   -43325.885    61.227135 
   18850    215.46195    36.653499    132176.68   -40759.742    2630.6607   -43390.402    61.356699 
   18900    215.48467    66.989892    132267.05   -40765.812    2630.9381    -43396.75    61.420144 
   18950    216.69017    47.295805    132360.91   -40768.652    2645.6565   -43414.309    61.455741 
   19000    216.13767    92.695258    132551.41   -40761.771    2638.9108   -43400.682    61.573533 
   19050    213.60959    12.544119    132593.57   -40792.418    2608.0445   -43400.463    61.849624 
   19100    213.73625    4.8236343     132448.6   -40803.314     2609.591   -43412.905    61.940358 
   19150    212.80088   -10.940968    132427.64   -40763.048    2598.1706   -43361.218    61.959281 
   19200    216.38625   -165.80397    132406.88   -40796.475    2641.9458    -43438.42       61.995 
   19250    211.13967   -18.078677    132303.22   -40765.466    2577.8882   -43343.354     62.13768 
   19300    222.73927    23.106487    132408.32     -40752.1    2719.5124   -43471.612    62.400929 
   19350    216.39278   -50.489371    132295.56   -40698.164    2642.0255   -43340.189    62.625133 
   19400    221.94601   -84.607596    132405.79   -40644.487    2709.8271   -43354.315    62.730149 
   19450    213.63005   -175.77902    132277.56   -40760.533    2608.2943   -43368.827    62.683304 
   19500    213.03149    33.003124    132367.18    -40715.53    2600.9862   -43316.516    62.721327 
   19550    219.71291   -23.697003     132325.5   -40727.332    2682.5624   -43409.894    62.758798 
   19600    213.57019    53.444831    132370.56   -40713.062    2607.5634   -43320.626    62.933457 
   19650    214.45292    57.038434    132263.45   -40785.986    2618.3411   -43404.327    62.921133 
   19700    210.80553    45.973381    132289.88   -40791.061    2573.8086   -43364.869    63.172821 
   19750     214.1543  -0.83274315    132149.16   -40784.663    2614.6951   -43399.358    63.362418 
   19800    215.50068   -19.913353    132025.76   -40820.028    2631.1336   -43451.162    63.632285 
   19850    214.45062   -46.004153    132029.78   -40821.223     2618.313   -43439.536    63.916986 
   19900    215.12658   -2.5003924    131932.35   -40824.846     2626.566   -43451.412    63.923414 
   19950    216.10377    68.590997     131966.1   -40841.221    2638.4969   -43479.718    64.148193 
   20000    216.61773    109.46099    131993.12   -40795.333     2644.772   -43440.105    64.283549 
   20050    219.45716    164.00314    132062.69   -40737.657    2679.4398   -43417.097    64.352897 
   20100    215.36576    47.855043     132066.2   -40733.159    2629.4863   -43362.645    64.545521 
   20150    216.48753    263.59772    132220.94   -40762.359    2643.1824   -43405.541    64.853016 
   20200    217.68572   -22.050446    132325.65   -40777.253    2657.8116   -43435.065    64.984212 
   20250     223.2807   -68.184084    132358.53   -40722.611     2726.123   -43448.734    65.164982 
   20300    221.81484   -31.367809    132285.33   -40739.099    2708.2257   -43447.324    65.420981 
   20350    217.33987    -41.81463    132189.41   -40788.769     2653.589   -43442.358    65.317903 
   20400    215.63268   -54.581024    132249.98   -40811.573    2632.7453   -43444.318    65.550688 
   20450     214.3548    3.2445156    132291.63   -40778.606     2617.143   -43395.749    65.733413 
   20500    217.94803    -157.9419    132212.44   -40753.958    2661.0142   -43414.972    65.865553 
   20550    213.62451    7.7008075    132097.58   -40779.714    2608.2267   -43387.941    65.830373 
   20600    217.56255   -112.90866    132037.19   -40728.428    2656.3077   -43384.736    65.971855 
   20650    214.99906    -110.7095    131983.31   -40738.409    2625.0091   -43363.418    65.876957 
   20700     217.7208    56.426665    131983.44   -40739.846    2658.2399   -43398.086    66.084475 
   20750    216.19901    101.40952    132037.94   -40727.911    2639.6598   -43367.571     66.28579 
   20800    217.37299    79.708338    132058.59   -40756.192    2653.9933   -43410.186    66.525927 
   20850    213.39457   -39.301941     132032.9    -40776.86    2605.4193    -43382.28    66.542991 
   20900    215.19796    -148.2403    131919.81   -40814.324    2627.4375   -43441.762    66.410749 
   20950    211.23742      121.861    131943.06   -40802.336    2579.0817   -43381.418    66.482982 
   21000    216.29717    55.143815    132098.14   -40761.286    2640.8582   -43402.144    66.750826 
   21050    215.37823    34.883661    132292.32   -40793.115    2629.6385   -43422.754    66.778659 
   21100    216.21578   -106.22528    132199.41   -40820.516    2639.8645    -43460.38    66.847974 
   21150    215.41518   -38.847351    132311.93   -40778.642    2630.0896   -43408.731    67.086247 
   21200    210.61819   -6.9912097    132276.45   -40828.454    2571.5213   -43399.975    67.340739 
   21250    211.93958    79.049996     132268.7   -40827.774    2587.6547   -43415.429     67.62121 
   21300    216.38016   -19.327424    132278.68   -40857.881    2641.8714   -43499.753    67.606366 
   21350    217.04886   -86.630878    132192.28   -40855.845    2650.0359   -43505.881    67.640983 
   21400    215.68559    44.278292    132151.44   -40838.305    2633.3912   -43471.696    67.805064 
   21450    214.31646    51.549788    132253.34   -40867.345    2616.6749    -43484.02    67.689423 
   21500     215.5903   -58.259587    132095.63   -40903.279    2632.2277   -43535.506    67.733343 
   21550    214.35176   -47.198561     132151.2   -40917.082    2617.1059   -43534.188    67.784111 
   21600    214.15287    121.87825    132326.66   -40923.965    2614.6776   -43538.643    67.671898 
   21650    214.29372     -38.0606    132353.13   -40905.133    2616.3973    -43521.53    67.814524 
   21700    216.18478   -125.35884    132319.88     -40930.1     2639.486   -43569.586    67.862051 
   21750    215.77005    9.4428904    132344.82   -40901.828    2634.4224    -43536.25     68.03684 
   21800    210.51529   -52.001602    132265.59   -40917.823     2570.265   -43488.088     68.08266 
   21850     213.7205   -53.208408    132164.11   -40883.779    2609.3987   -43493.178    68.238966 
   21900    215.59416   -123.86248    132217.73   -40865.583    2632.2749   -43497.858    68.370381 
   21950    214.89554   -46.637968    132232.29   -40846.279    2623.7451   -43470.024    68.388845 
   22000    214.27277    -14.63403    132257.69   -40810.915    2616.1415   -43427.056    68.499328 
   22050    216.91045    35.371601    132193.65    -40778.53     2648.346   -43426.876     68.62825 
   22100    212.56709   -63.668663    132262.84   -40823.996    2595.3161   -43419.313    68.715839 
   22150    217.98429   -135.83945    132128.46   -40818.828     2661.457   -43480.285    68.664153 
   22200    214.54968     1.095046    132017.59    -40877.34    2619.5224   -43496.863     68.75503 
   22250    215.03587     42.70746    132181.19   -40846.087    2625.4585   -43471.545     68.94357 
   22300    213.85383    90.430809    132270.57   -40823.631    2611.0265   -43434.657    69.091016 
   22350    210.19493    115.20751    132250.54   -40792.327    2566.3535   -43358.681    69.273064 
   22400    213.50671    26.943949    132351.51   -40836.514    2606.7884   -43443.303    69.580252 
   22450    215.14665   -183.53892    132202.99   -40831.371    2626.8111   -43458.182    69.658005 
   22500    213.13688    100.42914    132128.58   -40823.751    2602.2729   -43426.024    69.358697 
   22550    214.92567    29.952381    132184.45   -40813.808     2624.113   -43437.921    69.432271 
   22600    212.19179   -20.903337    132209.72   -40813.934     2590.734   -43404.668    69.601489 
   22650    217.59263    15.679153    132295.32   -40755.232    2656.6751   -43411.907    69.855972 
   22700     216.5958   -34.646622    132185.27   -40769.191    2644.5043   -43413.696    70.275541 
   22750    218.79161    10.405387    132268.22   -40781.914    2671.3139   -43453.228    70.294285 
   22800    217.04056    2.3615919    132257.11   -40827.469    2649.9346   -43477.404     70.81292 
   22850    217.43596   -54.997503    132242.06   -40816.162    2654.7622   -43470.924     70.97147 
   22900    217.61407   -60.703658    132230.33   -40801.183    2656.9368    -43458.12    70.914943 
   22950    215.05821    35.175516     132320.7   -40848.478    2625.7312   -43474.209    71.132344 
   23000    213.23366    42.264451    132108.93   -40815.385    2603.4546    -43418.84    71.391322 
   23050    217.10406    113.03044    132241.39   -40787.623    2650.7098   -43438.333    71.404842 
   23100    213.94866   -23.623251    132237.78   -40784.242    2612.1843   -43396.426    71.452808 
   23150    217.80649    28.661668    132259.96   -40733.996    2659.2861   -43393.282    71.568526 
   23200    215.50445    59.320482    132183.41   -40675.553    2631.1796   -43306.732    71.620332 
   23250     218.3372    63.225381    132205.94   -40702.896    2665.7657   -43368.662    71.815274 
   23300    217.74593    170.90705    132278.16   -40728.492    2658.5467   -43387.039     71.93917 
   23350    217.88054    50.066585    132388.29   -40721.313    2660.1903   -43381.503    72.374169 
   23400    215.75046     87.92326    132519.93   -40725.395    2634.1832   -43359.578    72.396475 
   23450     213.0147    77.289125    132465.93   -40778.166    2600.7813   -43378.948    72.538848 
   23500    215.72967   -49.518356     132399.7   -40757.496    2633.9294   -43391.425    72.881724 
   23550    212.91134    13.741341    132315.57   -40770.221    2599.5192    -43369.74      73.0385 
   23600    209.82044   -120.60949    132180.61    -40815.14    2561.7813   -43376.921    73.241097 
   23650     215.0074    43.394334    132061.79   -40821.935    2625.1109   -43447.046    73.424714 
   23700    214.38752   -66.245547    132215.15   -40811.145    2617.5426   -43428.688    73.492726 
   23750    216.37111    39.633608    132258.66   -40791.264    2641.7609   -43433.025    73.550239 
   23800    216.41657   -101.14713    132319.89   -40774.076     2642.316   -43416.392    73.644844 
   23850    217.11657    26.849397    132119.81   -40776.261    2650.8626   -43427.123    73.812879 
   23900    211.75549   -27.078381    132121.53   -40786.493    2585.4071     -43371.9    73.973827 
   23950    211.05481    53.036274    132000.32   -40840.503    2576.8522   -43417.355    73.802834 
   24000    211.52285    69.708086     132002.3   -40829.012    2582.5667   -43411.579    73.935114 
   24050    211.87707    22.934355    132016.37   -40827.148    2586.8914   -43414.039    74.302405 
   24100    216.08165    -97.77822    132017.33   -40766.545    2638.2268   -43404.772    74.495576 
   24150    211.25409    51.582666     132062.8   -40800.207    2579.2853   -43379.492    74.607302 
   24200    215.64968    44.064304    131989.44   -40771.757    2632.9528   -43404.709     74.56347 
   24250    217.40566   -6.9306348    132064.81   -40722.065    2654.3922   -43376.457    74.914666 
   24300    219.48563   -129.17589    132060.37   -40710.812    2679.7874     -43390.6    75.054331 
   24350    216.34125    152.42321    132063.04   -40724.292    2641.3964   -43365.689    75.335094 
   24400    220.27946   -79.346366    132038.35   -40701.722    2689.4796   -43391.201    75.552662 
   24450    216.36091   -58.234962    131965.25   -40729.786    2641.6364   -43371.423    75.554776 
   24500     217.4114     101.5516    131818.96   -40705.509    2654.4623   -43359.971    75.406656 
   24550    217.52845    -63.08015    131933.97   -40767.621    2655.8914   -43423.513    75.544857 
   24600    213.11959    68.996506    131987.74   -40793.124    2602.0619   -43395.186    75.692464 
   24650    217.86593   -117.72353    132024.92   -40779.558    2660.0118    -43439.57    75.684483 
   24700    212.51817    112.81529    131929.96   -40812.794    2594.7189   -43407.513    75.794054 
   24750    213.85574   -41.183991    131982.68   -40775.963    2611.0498   -43387.012    75.952734 
   24800    210.11631     34.64688    131969.64   -40807.921    2565.3936   -43373.314    76.324069 
   24850    214.16682   -30.440445    132050.62   -40788.586     2614.848   -43403.434    76.631329 
   24900    215.03088   -51.782517    132123.31   -40798.892    2625.3976   -43424.289    76.607614 
   24950      216.537    111.36472    132234.67   -40761.526    2643.7864   -43405.313    76.714078 
   25000    212.51293    46.329628     132245.9   -40805.266     2594.655   -43399.921     76.88477 
   25050    213.91151    10.819106    132211.07   -40791.643    2611.7307   -43403.373    76.667948 
   25100    217.48238    60.174579    132182.65   -40759.387    2655.3289   -43414.716    76.838768 
   25150    220.37546    11.846395    132266.44    -40734.78    2690.6517   -43425.432    76.905012 
   25200    214.91574   -10.881681    132213.58   -40780.059    2623.9918   -43404.051    76.998428 
   25250    219.87415    13.778467    132190.16    -40788.62     2684.531   -43473.151    77.127837 
   25300    218.71351   -78.818242    132241.11    -40736.15    2670.3603    -43406.51    77.192822 
   25350    221.72597    72.962795    132223.61   -40755.645    2707.1406   -43462.786    77.074541 
   25400    216.72602   -191.07096    132309.92   -40732.465    2646.0942   -43378.559    77.197186 
   25450    219.63691    9.2321985    132238.99   -40750.311    2681.6344   -43431.945    77.322383 
   25500    215.12278  -0.26289914    132286.29    -40770.06    2626.5196    -43396.58     77.49131 
   25550    213.39451    50.752679    132284.18   -40793.987    2605.4185   -43399.405    77.681419 
   25600    213.38452    126.78665    132274.23   -40781.567    2605.2966   -43386.864    77.927991 
   25650    215.92988    31.557571    132381.08   -40767.811    2636.3739   -43404.185    78.082193 
   25700    211.19194    132.53084    132442.75   -40772.653    2578.5265    -43351.18    78.378585 
   25750    218.21174   -47.735946    132466.17   -40797.114    2664.2339   -43461.348    78.398323 
   25800    214.85144   -136.72702    132439.47   -40816.424    2623.2067    -43439.63    78.615148 
   25850    213.86203    6.0413554    132445.01   -40818.077    2611.1266   -43429.204    78.760192 
   25900     214.4715    2.7994871    132393.89   -40831.372    2618.5679   -43449.939    78.945025 
   25950     214.4728    1.8592612    132458.34   -40758.572    2618.5837   -43377.155    79.031502 
   26000    219.15879    36.263753    132584.19   -40747.761    2675.7969   -43423.558    79.221629 
   26050    217.72018   -83.609266    132610.82    -40767.55    2658.2323   -43425.782    79.352216 
   26100    217.49925   -67.170522    132473.76   -40762.983    2655.5348   -43418.518    79.454689 
   26150    212.86703   -80.956426    132446.16   -40860.485    2598.9782   -43459.464    79.727831 
   26200    216.58101    47.318521    132345.86   -40878.272    2644.3238   -43522.596    79.805873 
   26250    214.64029    86.537933     132491.8   -40891.232    2620.6287    -43511.86    80.177007 
   26300    212.97107    118.22372    132611.64   -40931.662    2600.2486   -43531.911     80.34816 
   26350    213.06464   -110.99568    132581.09   -40907.935     2601.391   -43509.326    80.530894 
   26400    208.13994    13.184903    132569.15   -40893.738    2541.2633   -43435.001    80.733438 
   26450    211.93919    47.066591    132526.39    -40877.66    2587.6499    -43465.31    80.945162 
   26500    216.01638    157.45182    132626.97   -40857.061    2637.4299   -43494.491    81.051025 
   26550    215.15122    18.173911    132693.81   -40809.743    2626.8668    -43436.61    81.446755 
   26600    213.06213   -74.391865    132667.05   -40822.328    2601.3603   -43423.688    81.600583 
   26650    210.81423   -190.72621    132510.49   -40794.613    2573.9148   -43368.527    81.719716 
   26700     220.2419    21.272823    132470.05   -40760.639     2689.021    -43449.66    81.831069 
   26750    216.92452    92.642286    132450.65   -40777.926    2648.5178   -43426.443    81.657986 
   26800    218.40668   -24.157767    132435.29   -40766.213    2666.6141   -43432.827    81.821672 
   26850    218.72999    39.078994    132458.93   -40768.184    2670.5615   -43438.745     81.99972 
   26900     217.3885   -44.240365    132445.49   -40729.343    2654.1827   -43383.526    82.002889 
   26950    218.62175   -38.826034    132417.39   -40706.678      2669.24   -43375.918    82.272468 
   27000    220.94017    117.03299    132480.58   -40710.449    2697.5464   -43407.996    82.247164 
   27050    217.39032    101.14755    132582.19   -40712.888     2654.205   -43367.093    82.325069 
   27100    217.36142   -165.53176    132451.13   -40702.154    2653.8521   -43356.006    82.259746 
   27150    217.10101   0.61206565    132415.48   -40716.464    2650.6726   -43367.137    82.310195 
   27200    219.47951   -55.763648    132454.96   -40709.906    2679.7127   -43389.619    82.594053 
   27250    218.38958   -93.029407    132445.75   -40739.446    2666.4053   -43405.851    82.579863 
   27300    218.37752    118.53776    132557.06   -40719.431    2666.2581   -43385.689    82.723402 
   27350    215.66416    101.93122    132606.66   -40757.064    2633.1295   -43390.193     82.90645 
   27400    217.95512   -150.45973     132476.6   -40780.479    2661.1008   -43441.579    83.072066 
   27450    216.42907    25.287452    132526.26   -40837.895    2642.4687   -43480.364    83.397537 
   27500    212.55947    45.511701    132538.79   -40818.062    2595.2232   -43413.285    83.334571 
   27550    213.00907    154.65629    132626.75   -40837.749    2600.7125   -43438.461    83.544993 
   27600    216.84571     44.94585    132617.01   -40890.284    2647.5556    -43537.84    83.500757 
   27650    211.78831    28.449999     132650.7   -40813.762    2585.8078    -43399.57    83.623066 
   27700    211.45997   -39.991628    132592.64    -40826.33     2581.799   -43408.129    83.687122 
   27750    210.17976     169.5762    132609.49   -40856.057    2566.1684   -43422.226    83.742112 
   27800    213.54071   -44.769817    132683.94   -40911.015    2607.2035   -43518.218    83.746761 
   27850    216.76206    56.409285    132641.77    -40847.05    2646.5342   -43493.584    83.637056 
   27900     217.7148    126.58794    132646.41   -40842.101    2658.1666   -43500.268     83.86769 
   27950    214.66601   -110.28485    132560.34    -40851.38    2620.9428   -43472.323    84.049567 
   28000    214.22381    213.22483    132481.41    -40788.63    2615.5437   -43404.174    84.190799 
   28050     217.2869   -46.240496    132694.49   -40806.223    2652.9423   -43459.165    84.146599 
   28100    216.02859   -101.98565    132532.03   -40794.929     2637.579   -43432.508    84.515804 
   28150     217.3844   -68.116762    132563.67    -40777.71    2654.1326   -43431.842    84.702805 
   28200    219.23798   -72.482771    132439.52   -40731.287    2676.7637   -43408.051    84.953642 
   28250    219.12414   -56.638342    132495.36   -40735.217    2675.3738   -43410.591    85.066185 
   28300     219.9232    -90.19586    132478.77   -40756.971    2685.1298   -43442.101    85.501702 
   28350    219.74457   -226.62644    132464.34   -40798.674    2682.9489   -43481.623    85.460092 
   28400    216.91751    102.11031    132480.24   -40819.079    2648.4322   -43467.511     85.40534 
   28450    215.92304   -81.093753     132463.6   -40798.482    2636.2903   -43434.773     85.51678 
   28500    211.79355    88.657965     132376.8   -40831.634    2585.8717   -43417.505    85.620153 
   28550    213.92154   -251.13698    132277.62   -40834.306    2611.8532   -43446.159     85.82587 
   28600    213.81401    33.512457     132156.1   -40818.605    2610.5403   -43429.145     86.26283 
   28650    218.41794    21.301895    132269.51   -40841.768    2666.7515    -43508.52    86.193365 
   28700    213.45854    22.497317    132339.29   -40824.698    2606.2003   -43430.898    86.300432 
   28750    210.36519   -204.01254     132411.9   -40827.005    2568.4323   -43395.438    86.514106 
   28800    217.00421     98.75775    132463.74   -40762.198    2649.4908   -43411.688    86.716443 
   28850    216.20703    175.61122    132528.88    -40755.23    2639.7577   -43394.988    86.850957 
   28900     215.3921   -20.607893    132489.76   -40742.578    2629.8078   -43372.386    86.727939 
   28950    215.45849   -58.940793    132461.87   -40742.087    2630.6184   -43372.705     86.66481 
   29000    218.10696    119.12852    132516.98   -40746.053    2662.9547   -43409.008    86.743217 
   29050    215.68485    52.049258    132588.79    -40787.65    2633.3822   -43421.033    87.044469 
   29100     213.6215   -29.913506    132650.88   -40823.068      2608.19   -43431.258     87.11415 
   29150    210.83836    39.266598    132611.97   -40816.324    2574.2094   -43390.533    87.210993 
   29200     218.3405   -22.090222     132746.5   -40816.644    2665.8061    -43482.45    87.389283 
   29250    216.94792    39.335269    132689.15    -40821.58    2648.8035   -43470.384    87.685875 
   29300    212.60996   -45.336083    132758.37   -40811.438    2595.8397   -43407.278    87.763223 
   29350    213.72282    38.739325    132616.78   -40807.845     2609.427   -43417.272    87.708928 
   29400    214.28552    38.805953    132632.42   -40767.066    2616.2973   -43383.363    87.926269 
   29450    219.04012    -90.10057    132638.16   -40746.915     2674.348   -43421.263    88.197098 
   29500     218.0134    21.375897    132668.52   -40720.098    2661.8123    -43381.91    88.468703 
   29550    216.14861   -11.018728    132624.67   -40784.543    2639.0444   -43423.588    88.588913 
   29600    215.39359    94.192767    132805.23   -40791.267    2629.8261   -43421.093    88.598282 
   29650    217.77775    78.163108    132895.81   -40761.449    2658.9352   -43420.384    88.920836 
   29700    212.06284    8.9368402    132806.99   -40839.664    2589.1596   -43428.823    89.030836 
   29750    216.41912   -175.41349    132710.31   -40827.551    2642.3472   -43469.898    88.941535 
   29800    210.51432   -111.28012    132496.25   -40811.944    2570.2531   -43382.198    89.046275 
   29850    213.81276    131.47775    132522.45   -40778.684    2610.5251   -43389.209    89.037207 
   29900    216.25007    13.268631    132524.71   -40790.324    2640.2832   -43430.607    89.103633 
   29950    217.95438    97.792399    132608.53   -40741.933    2661.0918   -43403.025     89.25059 
   30000    214.93644    6.3756305    132720.46    -40746.72    2624.2445   -43370.965    89.439763 
   30050    215.66214   -126.36936    132632.16   -40775.085    2633.1049   -43408.189    89.708409 
   30100    215.88518    64.142006    132544.91   -40782.013    2635.8281   -43417.841    90.067119 
   30150    221.52874   -59.999653    132584.46   -40798.416    2704.7325   -43503.149    90.304145 
   30200    212.20158   -5.2227377    132505.58    -40875.15    2590.8536   -43466.004    90.542331 
   30250    213.13431   -16.232746    132573.68   -40836.816    2602.2416   -43439.058    90.708462 
   30300    213.99105   -78.177713    132527.97   -40831.631    2612.7019   -43444.333    90.628802 
   30350    215.80412   -84.192249    132504.86   -40843.291    2634.8383   -43478.129     90.62928 
   30400    214.92951    42.871293    132549.04   -40807.515      2624.16   -43431.675     90.82755 
   30450     218.1072    -55.94799    132610.95   -40841.001    2662.9576   -43503.959    90.991594 
   30500    214.49697   -138.15082     132565.6   -40872.428    2618.8789   -43491.307    91.328915 
   30550    215.28148   -96.177646    132473.37   -40805.746    2628.4572   -43434.203     91.34442 
   30600    211.94349    -221.1214    132180.41   -40872.089    2587.7025   -43459.792    91.172279 
   30650    212.37747    39.427447    132078.11   -40868.775     2593.001   -43461.776    91.228244 
   30700    215.67983    143.71272    132172.39    -40867.52    2633.3209    -43500.84    91.213435 
   30750    213.47634    217.51607    132504.54   -40875.299    2606.4176   -43481.717    91.614605 
   30800    214.78106    9.1168404    132610.32    -40836.04    2622.3474   -43458.387      91.7721 
   30850    212.49976    45.867116    132568.12   -40853.329    2594.4941   -43447.823    91.981786 
   30900    209.71665    33.182106    132537.32   -40860.842    2560.5141   -43421.356    92.146219 
   30950    214.44942    24.887388    132579.83   -40877.232    2618.2983    -43495.53    92.136605 
   31000    216.56974   -136.23532    132558.46   -40840.981    2644.1861   -43485.167    92.353609 
   31050    212.59448   -41.746349    132471.65   -40805.487    2595.6506   -43401.137    92.481484 
   31100    218.68894    136.93541    132421.91   -40813.596    2670.0603   -43483.657    92.666374 
   31150    214.52974    67.105285    132673.36   -40829.589    2619.2789   -43448.868    92.979613 
   31200    213.38302   -75.815017    132669.15   -40842.101    2605.2782   -43447.379    93.186017 
   31250    217.58813   -82.770668    132531.59   -40862.106      2656.62   -43518.726     93.33271 
   31300    213.57064    77.200661    132492.37   -40846.274    2607.5689   -43453.843    93.654493 
   31350    217.39447     6.881984    132627.74   -40842.739    2654.2556   -43496.995    93.772056 
   31400    216.72856   -30.076548    132555.37   -40813.022    2646.1252   -43459.147     93.86453 
   31450    219.50551    89.269231    132460.73   -40751.718    2680.0302   -43431.748    93.902413 
   31500    215.88279    100.69488    132626.63   -40757.067    2635.7989   -43392.865    94.207901 
   31550    217.69282   -43.778597    132664.84    -40785.66    2657.8983   -43443.559    94.491253 
   31600    214.40093    87.621681    132797.59   -40859.426    2617.7063   -43477.133    94.548348 
   31650    216.33766   -135.02199    132755.49    -40836.52    2641.3526   -43477.872    94.789908 
   31700    217.85261    27.543759    132635.41   -40852.307    2659.8493   -43512.156    94.747808 
   31750    215.27297   -133.16195    132469.87   -40880.027    2628.3534   -43508.381    94.947673 
   31800    214.03462   -8.6614577    132310.62   -40874.976    2613.2338    -43488.21    94.842333 
   31850     216.0176    24.620668    132226.07    -40825.66    2637.4449   -43463.104    94.762751 
   31900    218.15644  -0.99183809     132219.4   -40778.919    2663.5588   -43442.477    94.817617 
   31950    215.11495    50.114084     132148.4    -40786.41     2626.424   -43412.834     94.97694 
   32000    213.11625    74.139624    132055.31   -40794.707    2602.0211   -43396.728    95.031312 
   32050    214.28048    232.34083    132259.01     -40812.3    2616.2356   -43428.535    95.126538 
   32100    212.73275   -70.256526    132265.05   -40853.335    2597.3388   -43450.674    95.572836 
   32150    213.01196   -60.389307    132134.12   -40858.382    2600.7478    -43459.13    95.636355 
   32200    215.38143    97.957395    132236.03   -40867.911    2629.6776   -43497.589    95.772267 
   32250    213.27991   -86.293751    132305.85    -40887.29    2604.0192    -43491.31    95.895232 
   32300      217.064   -98.682851    132228.49   -40869.324    2650.2208   -43519.545    95.943862 
   32350    213.70128   -40.639688    132170.38   -40829.975    2609.1639   -43439.139    95.998865 
   32400    216.01145   -58.643055    132096.97   -40884.329    2637.3697   -43521.699     95.95778 
   32450    212.22975    102.46738    132064.79   -40886.288    2591.1975   -43477.485    96.096785 
   32500    212.08574   -75.354497    132028.34   -40870.765    2589.4392   -43460.204    96.187785 
   32550    210.34159   -29.276058    132006.22    -40847.37    2568.1442   -43415.514    96.339979 
   32600    209.29438    92.243306     132027.1   -40870.742    2555.3584     -43426.1    96.489543 
   32650    216.41135    119.86959    132088.72   -40821.479    2642.2523   -43463.731    96.509531 
   32700    209.45697   -44.825263    132203.25   -40821.117    2557.3435   -43378.461    96.633839 
   32750    214.46952    52.130638    132106.88   -40817.376    2618.5437    -43435.92    96.511263 
   32800    213.39195    76.333841    132159.44   -40815.189    2605.3873   -43420.576    96.872504 
   32850    211.73109   -85.907315    132117.17   -40810.665    2585.1091   -43395.774    97.396404 
   32900    215.36325   -6.4926226     131969.2   -40838.119    2629.4556   -43467.575    97.570017 
   32950    214.26275    16.960181    132112.58   -40824.324    2616.0192   -43440.343    97.568161 
   33000    216.00336    249.49682    132221.16    -40821.76    2637.2709   -43459.031    97.788194 
   33050    216.68261     109.5378    132410.39   -40821.269    2645.5643   -43466.834    97.971781 
   33100    217.78422    79.898714    132525.61   -40774.258    2659.0142   -43433.273     98.15273 
   33150     218.7707    45.289098    132614.03   -40763.244    2671.0585   -43434.303    98.262933 
   33200    215.29495   -41.803331     132568.1   -40814.175    2628.6218   -43442.797    98.448717 
   33250    211.76077   -13.034145    132575.07   -40846.457    2585.4715   -43431.929    98.689249 
   33300    215.52632   -31.199742     132573.4   -40883.908    2631.4466   -43515.354    98.675741 
   33350    212.81905    92.190415    132519.02   -40916.964    2598.3925   -43515.356     98.74003 
   33400    212.17131   -76.122874       132634   -40914.082     2590.484   -43504.566    98.774133 
   33450    215.52012   -228.59273    132518.95   -40888.621    2631.3709   -43519.992    98.728337 
   33500    212.98533   -65.574937    132466.63   -40911.101    2600.4227   -43511.524    98.646963 
   33550    219.32383   -61.080629    132410.97   -40887.624     2677.812   -43565.436    98.676782 
   33600    212.93037    80.034486    132458.31   -40946.853    2599.7517   -43546.605    98.966345 
   33650    212.47342    111.96328    132455.86   -40925.761    2594.1725   -43519.933    99.241336 
   33700     211.1185   -69.989907     132557.6   -40909.921    2577.6298   -43487.551    99.396017 
   33750    216.48114   -19.157797    132426.47   -40873.577    2643.1044   -43516.681    99.565597 
   33800    213.52959    24.020234    132488.25   -40893.274    2607.0677   -43500.342    99.777952 
   33850    212.74685   -5.3334604    132503.84   -40873.367    2597.5109   -43470.877    99.784231 
   33900    212.95221    21.616798    132638.83   -40810.511    2600.0183   -43410.529    99.847167 
   33950    219.06773    36.214215    132654.55   -40785.903    2674.6851   -43460.588    100.14471 
   34000    217.87706   -98.450242    132641.72   -40784.984    2660.1477   -43445.132    100.29003 
   34050    215.39033   -5.7897495    132692.86   -40797.598    2629.7862   -43427.384    100.54929 
   34100    217.27482    30.475361    132650.84   -40825.369    2652.7947   -43478.164     100.4281 
   34150    213.11831   -3.5764161    132772.51   -40798.238    2602.0463   -43400.284    100.43789 
   34200    215.91805    29.949469    132621.48   -40783.509    2636.2294   -43419.738     100.5612 
   34250    217.89592    28.951098    132639.44   -40834.178     2660.378   -43494.556    100.76525 
   34300    214.20904   -78.761819     132537.9   -40835.499    2615.3634   -43450.862    100.76671 
   34350    213.28346    18.206869    132521.34   -40841.708    2604.0626    -43445.77    100.85924 
   34400    214.08839   -93.218093    132482.98   -40851.842    2613.8903   -43465.732    100.88761 
   34450    217.03823    71.127814    132563.42    -40850.31    2649.9061   -43500.216    100.99864 
   34500    212.30698   -151.53384    132448.23   -40854.111    2592.1404   -43446.251    101.05562 
   34550    213.20904   -180.67892    132305.36   -40853.839     2603.154   -43456.993    100.94223 
   34600    215.10645   -99.371993    132204.25   -40811.661    2626.3202   -43437.981    100.99413 
   34650    214.53877   -3.8088773    132214.86   -40776.466    2619.3892   -43395.855    100.96793 
   34700    218.58046    358.34451     132343.4    -40755.55    2668.7359   -43424.286    101.27727 
   34750    217.42107   -94.560483     132607.4   -40713.019    2654.5803   -43367.599    101.58638 
   34800    216.98627   -17.446832    132641.96   -40688.212    2649.2718   -43337.484      101.647 
   34850    217.44103   -3.5917301    132545.28   -40732.459     2654.824   -43387.283    101.63627 
   34900     215.4049   -232.27657    132359.56   -40801.122    2629.9641   -43431.086    101.68212 
   34950    213.19537  -0.93079109    132376.84   -40787.397    2602.9871   -43390.384     101.9403 
   35000    211.98327   -123.42411    132123.34   -40822.155    2588.1882   -43410.343    102.01643 
   35050    211.23128    180.51206    132240.99    -40863.09    2579.0067   -43442.097    102.10083 
   35100    212.23468    83.339032    132347.19   -40832.093    2591.2576   -43423.351     102.1802 
   35150    215.90955   -101.39531    132448.34   -40841.502    2636.1256   -43477.627    102.30879 
   35200    211.56215     19.97526    132316.01    -40846.56    2583.0465   -43429.607    102.65405 
   35250    212.60183     12.49758    132353.37    -40864.24    2595.7404    -43459.98    102.79865 
   35300      213.986   -54.817337    132287.26    -40814.86    2612.6403     -43427.5    102.88576 
   35350     218.9604   -48.348115    132452.27   -40753.788    2673.3747   -43427.163    102.99782 
   35400    215.34693   -103.25286    132359.26   -40727.639    2629.2564   -43356.895    103.26645 
   35450    209.59388   -107.36719    132254.32   -40737.069    2559.0151   -43296.084    103.46598 
   35500    217.03556  0.034132997    132136.02    -40716.97    2649.8735   -43366.844    103.45957 
   35550    217.32713   -25.581328    132287.97   -40717.323    2653.4334   -43370.757    103.77191 
   35600    217.05118    50.283599    132331.98   -40653.923    2650.0643   -43303.988    103.85369 
   35650     221.8667    100.15139    132367.02   -40664.856    2708.8588   -43373.714    103.95145 
   35700    219.28857    6.9206684    132319.65    -40665.63    2677.3814   -43343.011    103.91381 
   35750    215.05399    172.61532    132502.59   -40677.886    2625.6797   -43303.566    104.16968 
   35800    220.17466    24.840995    132563.06   -40695.588    2688.2001   -43383.788     104.4774 
   35850    215.06204    -69.57226     132478.3   -40669.785    2625.7781   -43295.563    104.52631 
   35900    222.11223    67.532642    132356.81   -40644.443    2711.8566   -43356.299    104.61673 
   35950    217.15219   -101.66211    132405.48   -40664.965    2651.2975   -43316.263    104.47148 
   36000    216.02115   -17.498495    132287.45   -40722.018    2637.4882   -43359.507    104.40794 
   36050    219.65013    33.425386    132273.24   -40684.055    2681.7959   -43365.851    104.38435 
   36100    214.84524    -4.831019    132349.14   -40712.921     2623.131   -43336.052    104.53851 
   36150    215.70016    119.58117    132340.54   -40726.628    2633.5691   -43360.197    104.60457 
   36200    218.86535    -116.1493     132337.3   -40725.748    2672.2141   -43397.962    105.19448 
   36250    215.48906    137.74725     132461.8   -40724.562    2630.9917   -43355.554     105.6625 
   36300    215.75445   -48.358183    132487.07   -40782.654    2634.2319   -43416.886    105.90696 
   36350    215.22865   -55.400659    132348.36   -40795.738    2627.8123   -43423.551    106.03551 
   36400     212.6141    60.721142    132344.68   -40786.855    2595.8901   -43382.745    106.04473 
   36450    212.95636     70.55071    132339.94   -40810.163     2600.069   -43410.232    106.44955 
   36500    210.13715   -43.260634    132418.93   -40775.664    2565.6481   -43341.312    106.63099 
   36550    214.20713    13.100256     132359.5   -40714.573    2615.3401   -43329.913    106.90864 
   36600    216.72995   -108.58797    132253.85   -40699.531    2646.1422   -43345.673    106.97471 
   36650    215.17688   -117.12126    132164.31   -40752.128    2627.1802   -43379.308    107.30346 
   36700    211.70355   -108.87844    132081.05   -40764.332    2584.7729   -43349.105    107.41879 
   36750    210.83619   -11.864704    132001.41   -40782.359     2574.183   -43356.542     107.4983 
   36800    213.88703      172.599    132028.81   -40792.449    2611.4318   -43403.881    107.66027 
   36850    215.68713    4.8832054    132126.15    -40752.79      2633.41     -43386.2    107.75398 
   36900    215.17286   -7.6030721    132303.22   -40734.228    2627.1311   -43361.359     108.2277 
   36950    217.71532    92.756298    132370.52   -40719.358     2658.173   -43377.531    108.37789 
   37000    218.46316    27.816749    132370.37   -40723.557    2667.3036    -43390.86    108.32961 
   37050    213.70257   -201.92677    132441.36   -40706.238    2609.1797   -43315.417    108.50705 
   37100     217.3377   -98.133996    132270.41   -40736.454    2653.5625   -43390.017      108.594 
   37150    216.75012      64.0709    132362.64   -40765.491    2646.3885   -43411.879    108.64522 
   37200    213.92071   -175.26955    132211.47   -40788.754     2611.843   -43400.597    108.60464 
   37250    210.98926    80.618474    132055.97   -40775.436    2576.0519   -43351.488    108.66584 
   37300    215.86462   -146.38618    132084.35    -40778.91    2635.5771   -43414.487    108.44616 
[...]
  191000    211.95284   -100.78568    132373.95   -40741.097    2587.8166   -43328.914    530.27922 
  191050    214.77102    19.883508    132331.02    -40758.74    2622.2248   -43380.965    529.97973 
  191100    211.56977   -108.24765    132243.85   -40744.628    2583.1396   -43327.767    529.80328 
  191150    213.76056    -44.21958    132267.24   -40777.842    2609.8877    -43387.73    529.59306 
  191200    214.10689    178.25247    132174.17   -40749.557    2614.1163   -43363.673    529.31314 
  191250    213.25815   -10.404843     132211.7   -40737.071    2603.7537   -43340.825    529.82283 
  191300    214.19991   -104.70039     132073.8   -40762.929     2615.252   -43378.181    529.82315 
  191350    220.01945   -4.6707459    132029.61   -40771.331     2686.305   -43457.636    529.50464 
  191400      211.368    74.258171     132019.2     -40804.1     2580.676   -43384.776    529.62797 
  191450    215.78303   -122.17515    131992.14   -40813.599    2634.5809    -43448.18    529.76568 
  191500    213.71244    28.220293    132014.16   -40804.932    2609.3002   -43414.232    529.98265 
  191550    214.65018   -126.29444     131991.4   -40857.356    2620.7495   -43478.106    530.19004 
  191600    213.24645    81.367547    131997.98   -40844.975    2603.6108   -43448.585    530.35405 
  191650    215.52626     189.9115    132108.57   -40855.929    2631.4459   -43487.375    530.70517 
  191700    215.22765   -92.571547     132047.5   -40826.063    2627.8001   -43453.863    530.90204 
  191750     216.3706    81.261534    132030.47   -40816.666    2641.7548    -43458.42    531.32952 
  191800    211.68768     12.17866     132086.4   -40838.731    2584.5792    -43423.31     531.2935 
  191850     213.1742    2.0273418    132216.93   -40880.513    2602.7287   -43483.242    532.13974 
  191900    216.28744    102.53626    132324.68   -40775.646    2640.7394   -43416.385    532.84458 
  191950    213.80686   -53.406725    132392.78   -40781.145     2610.453   -43391.598    532.79339 
  192000    216.79855   -110.93647    132301.96   -40768.414    2646.9798   -43415.393    532.61347 
  192050    216.27116    137.28592    132355.47   -40782.097    2640.5406   -43422.638    533.49682 
  192100    217.06592   -127.54027    132261.03   -40795.146    2650.2443    -43445.39    533.36623 
  192150    213.82559   -81.999928    132311.48   -40824.617    2610.6817   -43435.299    533.19157 
  192200    208.42726   -48.509097    132266.87    -40777.01    2544.7714   -43321.781    533.17634 
  192250    214.44959    9.5031761    132271.75   -40758.288    2618.3003   -43376.588    533.00617 
  192300    212.43669    38.949789    132231.71   -40765.776    2593.7241     -43359.5    532.99877 
  192350    218.25358   -53.139083    132261.05   -40746.895    2664.7448    -43411.64    533.38258 
  192400    216.12053   -100.09879    132236.05   -40754.151    2638.7016   -43392.852    533.20905 
  192450    213.32281    48.952529     132096.4   -40770.858    2604.5431   -43375.401    533.32814 
  192500    215.28653   -123.78904    132061.41   -40739.369    2628.5189   -43367.888    533.42394 
  192550    214.25362   -30.064782    132041.56   -40782.203    2615.9077    -43398.11    533.90112 
  192600    216.76106    88.353139    132098.41   -40806.716     2646.522   -43453.238    534.09577 
  192650    216.92275   -39.080843    131917.03   -40801.797    2648.4962   -43450.293    534.13716 
  192700    211.08589    12.005111    131980.27   -40828.445    2577.2317   -43405.676    534.06395 
  192750    212.25107    6.8205201    131965.43   -40780.281    2591.4577   -43371.738    533.97623 
  192800    215.76481     172.3454    132038.55   -40820.216    2634.3584   -43454.574    534.82705 
  192850    214.71045  -0.41585376     132072.4    -40804.25    2621.4853   -43425.736    535.45647 
  192900    215.85275    13.500317    132171.04   -40759.453    2635.4321   -43394.885    535.43381 
  192950    215.55498   -18.130614    132229.93    -40766.53    2631.7965   -43398.327    536.00786 
  193000    212.86947    -79.85848    132254.71   -40768.981    2599.0081   -43367.989    536.18309 
  193050    217.38951    260.66668    132193.03   -40809.131    2654.1951   -43463.326    535.88046 
  193100    213.15061    70.859508    132211.59   -40840.068    2602.4406   -43442.509    535.69645 
  193150    214.68317   -55.701002    132148.77   -40833.281    2621.1522   -43454.434    535.60564 
  193200     215.4261   -96.349425    132079.29   -40853.778     2630.223   -43484.001    535.70617 
  193250    215.34366    -80.16454    132000.85    -40808.75    2629.2164   -43437.966    535.72555 
  193300    217.16778   -15.613043    132026.14   -40793.318    2651.4879   -43444.806    535.57526 
  193350    216.07135    7.1550254    132103.41   -40754.808    2638.1011   -43392.909      536.267 
  193400    215.18633    44.636986    132020.66   -40779.089    2627.2956   -43406.385    536.24032 
  193450    217.54695   -155.33621    132066.73   -40769.948    2656.1173   -43426.065     536.3822 
  193500    212.47296     42.81397    131900.82   -40797.682    2594.1669   -43391.849    535.94491 
  193550     217.5451    213.72926     131978.9   -40764.383    2656.0947   -43420.477    536.13084 
  193600    215.09086    97.802808    132197.16   -40809.231      2626.13   -43435.361    537.34893 
  193650    208.96571    7.5311371    132265.86   -40837.053    2551.3455   -43388.398    538.02951 
  193700    212.37904   -33.660491    132223.72   -40810.798    2593.0202   -43403.818    538.29423 
  193750    212.18862   -86.690977    132178.56   -40789.465    2590.6953    -43380.16    537.82547 
  193800    218.00461    -13.88017    132111.57   -40788.581    2661.7051   -43450.286    537.87623 
  193850    212.45926   -92.236587    131983.48   -40788.381    2593.9997   -43382.381    537.70783 
  193900    215.11835    88.965212    131833.01   -40777.085    2626.4656    -43403.55    537.36474 
  193950     216.1542   0.02714199    131906.54   -40785.909    2639.1126   -43425.022    537.75638 
  194000    212.82108   -74.029483    132015.09   -40794.849    2598.4173   -43393.266     538.3771 
  194050    213.92988   -132.70815    132074.08    -40808.64    2611.9551   -43420.595    538.11451 
  194100     210.3985   -1.3380942    131862.53   -40772.649     2568.839   -43341.488    538.21024 
  194150    216.14367    300.35823    131890.08    -40792.76    2638.9841   -43431.744    538.46343 
  194200    213.60701    11.510026    131918.27   -40793.848     2608.013   -43401.861    538.61465 
  194250    213.78643    38.638979    131883.65   -40777.167    2610.2036    -43387.37    538.17001 
  194300    213.05224    109.39119    131873.96   -40766.319    2601.2396   -43367.558    538.88785 
  194350     211.9446   -80.601541    131839.36   -40831.667     2587.716   -43419.383    538.96873 
  194400    212.15636    27.316603     131743.4   -40822.247    2590.3014   -43412.548    538.68049 
  194450     214.3954    133.45738    131772.27   -40791.612    2617.6388   -43409.251    538.89192 
  194500    215.14272    149.16174    131950.69   -40804.956    2626.7631   -43431.719    539.53659 
  194550    216.05242   -105.83589    131954.49   -40778.843      2637.87   -43416.713    539.77447 
  194600    213.87385    106.73564    131756.17    -40767.55     2611.271   -43378.821    539.84009 
  194650    215.49072    57.609991       131604    -40758.01    2631.0119   -43389.022    539.10572 
  194700    215.35207    152.13566    131728.48   -40747.573    2629.3192   -43376.892    539.28344 
  194750    215.66408    151.55024    131793.11   -40758.821    2633.1285    -43391.95    539.70626 
  194800    216.12263   -3.2861427    132016.35   -40722.664    2638.7272   -43361.391    540.66961 
  194850    218.21663   -103.39759    131794.34   -40719.563    2664.2936   -43383.857    540.24129 
  194900    220.14059    12.655896    131815.56   -40702.155     2687.784   -43389.939     540.0781 
  194950    210.79114    121.27464    131909.33   -40729.893    2573.6329   -43303.525    540.84654 
  195000    218.30815   -6.7729197    131956.35   -40692.979    2665.4111    -43358.39    540.71877 
  195050    212.66059   -38.603953    131909.74   -40749.813    2596.4578   -43346.271     540.4414 
  195100    213.76197   -135.98352    131815.44   -40765.139    2609.9049   -43375.044    540.63034 
  195150    209.83193   -35.888082    131770.97   -40752.632    2561.9215   -43314.553    540.88476 
  195200    217.25787   -117.93377    131613.07   -40741.283    2652.5878    -43393.87    540.73116 
  195250    214.48656    8.7147416    131594.43   -40743.732    2618.7518   -43362.483     540.8363 
  195300    212.06855    78.523623    131775.68   -40755.727    2589.2293   -43344.956    541.17622 
  195350    213.01379   -54.435093    131866.52   -40801.751    2600.7701   -43402.521    542.02819 
  195400    214.42367    55.049761    131733.18   -40827.507    2617.9839   -43445.491    541.70877 
  195450    215.78924   -28.496846    131665.18   -40799.804    2634.6567    -43434.46    542.17991 
  195500    215.24721    57.740006    131661.08   -40784.429    2628.0389   -43412.468    542.30475 
  195550    217.78741    75.018497     131631.6   -40791.656    2659.0531    -43450.71    542.20948 
  195600     216.4781    184.06196    131772.69     -40743.7    2643.0672   -43386.767    543.22377 
  195650    217.25604    -81.42293    131870.04    -40729.01    2652.5655   -43381.576    543.45097 
  195700    213.35311    11.024557    131977.95   -40747.181    2604.9131   -43352.094    543.92655 
  195750    215.52423    -63.34312    132050.81   -40709.738    2631.4211   -43341.159    544.45961 
  195800    219.40817    10.828521    132030.52   -40695.277    2678.8417   -43374.119    545.06403 
  195850    217.30194    42.498232    132170.19   -40706.774    2653.1259     -43359.9    545.81623 
  195900    213.00692    141.76192    132298.97   -40773.405    2600.6862   -43374.091    546.42871 
  195950    213.86748    21.884385    132362.66    -40707.54    2611.1932   -43318.733    547.24862 
  196000    211.78089   -215.00944    132286.01   -40731.546    2585.7172   -43317.263    547.28681 
  196050      216.524   -54.906789    132368.33   -40761.927    2643.6276   -43405.554    546.96696 
  196100    209.08414   -190.62598       132246   -40779.673    2552.7914   -43332.465    546.64787 
  196150     212.5536   -102.08735    132108.38   -40785.452    2595.1515   -43380.604    546.51598 
  196200      206.504    9.2787621    132072.24   -40809.313    2521.2895   -43330.602    546.35938 
  196250     212.6258   -14.770634    131943.16   -40781.556     2596.033   -43377.589    546.12641 
  196300    210.05987   -33.675318    131874.45   -40794.547    2564.7045   -43359.252    546.36763 
  196350     208.0395    81.759515    131762.61   -40784.083     2540.037    -43324.12    545.43001 
  196400    211.64414    115.76405     131748.7   -40744.881    2584.0475   -43328.929    545.85267 
  196450     215.2418    85.036331    131882.69   -40709.522    2627.9728   -43337.495    546.57853 
  196500    214.20221    131.06324    132010.19   -40707.773      2615.28   -43323.053    546.84188 
  196550    213.49471    14.142757    132126.83   -40678.527    2606.6419   -43285.169    547.23702 
  196600    211.20198   -17.699919    132072.13   -40647.175     2578.649   -43225.824    546.70289 
  196650    219.80337   -36.481007    132135.75   -40593.667    2683.6668   -43277.334    546.77461 
  196700    221.06089    138.95465    132245.58   -40652.891    2699.0204   -43351.911    547.51942 
  196750    216.77359   -34.368277    132223.95   -40649.194     2646.675   -43295.869    546.83008 
  196800    215.45696    76.309919    132268.03   -40689.528    2630.5998   -43320.127    547.41974 
  196850    216.36701    42.691773    132216.74   -40719.783     2641.711   -43361.494    547.56379 
  196900    217.93554   -77.535805    132000.53   -40758.148    2660.8618    -43419.01    546.60445 
  196950    216.85001    85.840667    132051.31     -40743.3    2647.6081   -43390.908    546.86411 
  197000    218.62147   -44.175895    131952.49   -40675.369    2669.2366   -43344.606    547.03981 
  197050    215.63267   -15.852372    131908.18   -40684.668     2632.745   -43317.413    546.50434 
  197100     216.4357   -27.202168     131869.8   -40712.694    2642.5496   -43355.243    546.39351 
  197150    217.21083   -99.134933    131805.96   -40744.767    2652.0134   -43396.781    546.86612 
  197200    211.32635    13.481251    131752.36   -40771.392    2580.1676   -43351.559    546.47413 
  197250    216.17552   -36.501224    131858.21   -40782.483     2639.373   -43421.856    547.21648 
  197300    216.40345   -127.59355    131776.16   -40807.125    2642.1559    -43449.28    547.39389 
  197350    217.46628    114.10642    131742.18   -40794.892    2655.1324   -43450.024    547.14715 
  197400    217.11669    2.7872175    131873.39   -40763.563     2650.864   -43414.427    547.66394 
  197450    214.59173   -16.238536    131870.48   -40795.839    2620.0359   -43415.875    547.26069 
  197500    212.65093   -63.796951       131722   -40794.765    2596.3399   -43391.105    546.94795 
  197550    211.71446    20.698886    131709.98   -40838.316     2584.906   -43423.222    546.72291 
  197600    214.13512   -4.1423982     131740.4   -40785.241     2614.461   -43399.702    547.43636 
  197650    213.39435     107.2645     131809.8   -40792.561    2605.4165   -43397.978    547.47937 
  197700    214.59934    -71.32125    131812.31   -40798.205    2620.1287   -43418.334    547.59732 
  197750    220.34298    121.75949    131971.06   -40783.809    2690.2551   -43474.064    548.02131 
  197800    217.26761   -9.9409142     132069.8   -40748.563    2652.7067    -43401.27    548.26317 
  197850    218.42671    -79.25022    132083.62   -40728.392    2666.8587    -43395.25    548.46343 
  197900    213.83652   -117.32594    132021.43   -40718.998    2610.8152   -43329.813    548.58139 
  197950    213.60036   -151.61094    131923.61   -40729.765    2607.9318   -43337.697    548.90625 
  198000     218.2827   -62.192514     131717.5   -40801.256    2665.1004   -43466.357    548.15103 
  198050    212.90524    201.57623    131752.22   -40788.898    2599.4448   -43388.343     548.1567 
  198100    212.78737    64.186474    131761.18    -40813.68    2598.0057   -43411.686    548.74311 
  198150    214.60031   -37.565473    131785.71   -40793.542    2620.1406   -43413.683    548.75203 
  198200    215.37429    144.51893    131844.75   -40799.987    2629.5904   -43429.578     549.0412 
  198250    215.54319     83.42264     131890.5   -40769.439    2631.6526   -43401.091    549.02748 
  198300    213.47127   -17.571706    131892.98   -40799.401    2606.3557   -43405.757    549.54916 
  198350    215.66081    65.251199     131827.9   -40802.554    2633.0887   -43435.643     549.6174 
  198400    216.65829   -88.074592    131953.31   -40803.017    2645.2673   -43448.285    550.41545 
  198450    213.66151    113.08181    131897.45    -40822.32    2608.6784   -43430.998    550.44813 
  198500    211.19026    50.283068    132040.54   -40795.166     2578.506   -43373.672     550.6462 
  198550     212.4742    52.614861    131928.05   -40818.504     2594.182   -43412.686    550.60374 
  198600    216.32512     192.1797    132051.65    -40810.12    2641.1995   -43451.319    550.87099 
  198650    219.52654    41.071778    132202.37   -40781.973    2680.2869    -43462.26    551.58691 
  198700    213.41129     215.1847    132185.74   -40836.396    2605.6234   -43442.019    551.67048 
  198750    215.78124    11.915479    132303.49   -40775.087     2634.559   -43409.646    552.23909 
  198800    216.68362    44.367306    132308.44   -40730.862    2645.5766   -43376.438    552.72518 
  198850    215.51188   -244.85388    132162.09   -40777.169    2631.2703   -43408.439    553.06044 
  198900    217.50562   -24.572569    132054.12   -40769.626    2655.6127   -43425.239    552.50329 
  198950    212.21125    98.586036    132053.59   -40793.402    2590.9716   -43384.374    552.47832 
  199000    218.18812    3.0022915    132140.45   -40768.598    2663.9455   -43432.543    552.48627 
  199050    217.49966    167.08132    132187.19   -40745.073    2655.5399   -43400.613    552.25993 
  199100    213.40284    62.124173    132224.55   -40763.376    2605.5202   -43368.897    552.93733 
  199150    214.44149    -94.49677    132094.72   -40801.654    2618.2015   -43419.855    552.45088 
  199200    212.56508    60.983495    131934.47   -40813.255    2595.2917   -43408.546    551.97969 
  199250     211.1388   -5.1853377    131866.84   -40830.913    2577.8777   -43408.791    551.65707 
  199300    213.26751    55.902983    131976.74   -40812.698    2603.8679   -43416.566    552.15776 
  199350    216.15111    25.850456    132098.18   -40754.084    2639.0749   -43393.159    552.80172 
  199400    211.76967   -5.7045838    132128.89   -40797.929    2585.5802    -43383.51    553.34046 
  199450    215.62555    52.502771    132063.75   -40799.388    2632.6581   -43432.046    552.90335 
  199500    215.92667    87.418113    131975.02   -40773.293    2636.3347   -43409.628    552.41206 
  199550    215.78691    144.32233    132014.79   -40784.298    2634.6283   -43418.926    552.57089 
  199600    211.52383   -10.117064    132157.64   -40809.839    2582.5787   -43392.417     553.4644 
  199650    214.99709   -136.92465    132175.12   -40803.344    2624.9851   -43428.329    553.34298 
  199700    216.82611   -105.65329    132116.87   -40811.633    2647.3162   -43458.949    553.07108 
  199750    213.36158    160.37724    132071.89   -40780.781    2605.0164   -43385.797    553.49853 
  199800    220.86317    46.931023     132211.7   -40724.464    2696.6064    -43421.07    554.32221 
  199850     214.8722   -12.109683    132293.73   -40762.293    2623.4602   -43385.754     554.5603 
  199900    217.24917    12.767205    132292.57   -40751.944    2652.4815   -43404.426    554.81655 
  199950    218.23752    76.966628     132386.5   -40771.909    2664.5488   -43436.458    555.34407 
  200000    216.42507    -15.25535    132454.34   -40773.989    2642.4198   -43416.409    555.24452 
Loop time of 334.729 on 12 procs for 200000 steps with 4097 atoms

Performance: 258.120 ns/day, 0.093 hours/ns, 597.499 timesteps/s
99.5% CPU use with 12 MPI tasks x no OpenMP threads

MPI task timing breakdown:
Section |  min time  |  avg time  |  max time  |%varavg| %total
---------------------------------------------------------------
Pair    | 236.85     | 277.4      | 301.81     | 154.4 | 82.87
Neigh   | 6.2236     | 7.0939     | 7.5729     |  22.7 |  2.12
Comm    | 18.953     | 43.714     | 85         | 396.7 | 13.06
Output  | 0.14678    | 0.1715     | 0.42437    |  18.4 |  0.05
Modify  | 4.8974     | 5.0227     | 5.1241     |   2.6 |  1.50
Other   |            | 1.329      |            |       |  0.40

Nlocal:    341.417 ave 373 max 296 min
Histogram: 2 2 0 0 0 0 1 1 5 1
Nghost:    961.583 ave 996 max 908 min
Histogram: 2 2 0 0 0 0 0 2 3 3
Neighs:    0 ave 0 max 0 min
Histogram: 12 0 0 0 0 0 0 0 0 0
FullNghs:  11097.2 ave 12360 max 9356 min
Histogram: 2 2 0 0 0 0 1 1 5 1

Total # of neighbors = 133166
Ave neighs/atom = 32.5033
Neighbor list builds = 11817
Dangerous builds = 0

write_data		${DIR}/data.eq-${NAME}-${TEMP}
write_data		run_4/data.eq-${NAME}-${TEMP}
write_data		run_4/data.eq-hardcavity_freeze_4-${TEMP}
write_data		run_4/data.eq-hardcavity_freeze_4-215
undump          1

reset_timestep  0

unfix           2
unfix           3
unfix           4


################################################
#######         Run Simulation         #########
################################################

log				${DIR}/log.run_${NAME}
log				run_4/log.run_${NAME}
log				run_4/log.run_hardcavity_freeze_4
