

### IMPORT ATOMS ###
read_data ../Box_Setup/data.Ibeam_240K
  orthogonal box = (0 0 0) to (157.504 40.4305 33.9212)
  10 by 4 by 4 MPI processor grid
  reading atoms ...
  9248 atoms
  reading velocities ...
  9248 velocities
group water type 2
1952 atoms in group water
group graphite type 1
7296 atoms in group graphite


# Define potential
#
pair_style          sw
pair_coeff * * MLC_e.sw C mW

# Add velocity/set timestep
#

fix		1 graphite setforce 0.0 0.0 0.0
velocity 	graphite set 0.0 0.0 0.0
velocity            water create ${START_TEMP} ${SEED} rot yes dist gaussian
velocity            water create 240 ${SEED} rot yes dist gaussian
velocity            water create 240 30284 rot yes dist gaussian
timestep            5.0

# Define output
#
compute 1 water msd
compute 2 water temp


thermo	            100
thermo_style custom step c_2 press vol etotal ke pe c_1[4] density

# Neighbor lists
#
neigh_modify        delay 0 every 1 check yes


# Set fixes
#
fix                 2 water momentum 10 linear 1 1 1 rescale
fix                 3 all nve
fix                 4 water temp/csvr ${START_TEMP} ${START_TEMP} 500.0 928347
fix                 4 water temp/csvr 240 ${START_TEMP} 500.0 928347
fix                 4 water temp/csvr 240 240 500.0 928347

# Run 0.05 ns equilibration
#
dump                1 all custom 100 ${DIR}/eq.${NAME}.dump id type x y z vx vy vz
dump                1 all custom 100 run_22/eq.${NAME}.dump id type x y z vx vy vz
dump                1 all custom 100 run_22/eq.ibeam_cooling_22.dump id type x y z vx vy vz
run                 10000
Neighbor list info ...
  update every 1 steps, delay 0 steps, check yes
  max neighbors/atom: 2000, page size: 100000
  master list distance cutoff = 6.67472
  ghost atom cutoff = 6.67472
  binsize = 3.33736, bins = 48 13 11
  1 neighbor lists, perpetual/occasional/extra = 1 0 0
  (1) pair sw, perpetual
      attributes: full, newton on
      pair build: full/bin/atomonly
      stencil: full/bin/3d
      bin: standard
Per MPI rank memory allocation (min/avg/max) = 0.4647 | 3.681 | 4.743 Mbytes
Step c_2 Press Volume TotEng KinEng PotEng c_1[4] Density 
       0          240   -299.33439    216009.12   -18704.344    1395.7345   -20100.079            0   0.94393226 
     100    241.97737   -393.25937    216009.12   -18716.088     1407.234   -20123.322   0.78732925   0.94393226 
     200    232.89632   -305.55962    216009.12   -18762.016    1354.4226   -20116.439    1.1681038   0.94393226 
     300    239.10748   -168.78339    216009.12   -18730.167     1390.544   -20120.711    1.4505205   0.94393226 
     400    230.85874   -343.48353    216009.12   -18738.656    1342.5729   -20081.229    1.7605757   0.94393226 
     500    235.23003   -363.89587    216009.12   -18712.636    1367.9944   -20080.631    2.0937807   0.94393226 
     600     242.4553   -458.53857    216009.12   -18618.062    1410.0135   -20028.075    2.4705211   0.94393226 
     700    246.56426   -252.68509    216009.12   -18620.513    1433.9094   -20054.422    2.8854507   0.94393226 
     800     246.3607   -262.50611    216009.12   -18605.307    1432.7256   -20038.032    3.1835878   0.94393226 
     900    239.71786   -399.29982    216009.12   -18637.504    1394.0937   -20031.598    3.5520664   0.94393226 
    1000    235.78032   -320.25996    216009.12   -18686.751    1371.1947   -20057.946    3.8684199   0.94393226 
    1100    240.17058   -218.51653    216009.12   -18663.894    1396.7265   -20060.621    4.1232433   0.94393226 
    1200    241.73082   -263.18716    216009.12   -18648.574    1405.8002   -20054.374     4.537004   0.94393226 
    1300    240.03015   -266.08495    216009.12   -18591.961    1395.9098   -19987.871    4.7866891   0.94393226 
    1400    239.78605   -285.46503    216009.12    -18625.28    1394.4903    -20019.77    5.3035819   0.94393226 
    1500    240.08149   -270.14271    216009.12   -18635.927    1396.2084   -20032.136    5.7847331   0.94393226 
    1600    243.62681   -303.06833    216009.12   -18619.997    1416.8264   -20036.823     6.092182   0.94393226 
    1700    245.87008   -430.77396    216009.12    -18630.09    1429.8723   -20059.962    6.5336441   0.94393226 
    1800    246.32577   -166.52372    216009.12   -18612.573    1432.5224   -20045.096    6.7953819   0.94393226 
    1900     248.1051   -386.65634    216009.12   -18581.676    1442.8702   -20024.546    7.2141187   0.94393226 
    2000    253.28897   -237.47978    216009.12   -18563.176    1473.0173   -20036.193    7.4655053   0.94393226 
    2100    233.88943   -274.63619    216009.12   -18650.524    1360.1981   -20010.722    7.8778226   0.94393226 
    2200    234.74352    -264.1664    216009.12   -18615.202    1365.1651   -19980.367    8.3997548   0.94393226 
    2300    242.03404   -205.90529    216009.12    -18583.87    1407.5636   -19991.434    8.9036035   0.94393226 
    2400     243.5713    -235.3632    216009.12   -18589.583    1416.5036   -20006.086     9.478794   0.94393226 
    2500    237.77448    -309.8179    216009.12   -18625.065    1382.7918   -20007.857    9.9440235   0.94393226 
    2600    239.28742   -370.24427    216009.12   -18620.936    1391.5904   -20012.526     10.30882   0.94393226 
    2700    244.43954   -204.78992    216009.12   -18621.872    1421.5529   -20043.425     10.63509   0.94393226 
    2800    245.48895   -457.94568    216009.12   -18577.036    1427.6558   -20004.692    11.183693   0.94393226 
    2900    244.53953   -434.13957    216009.12   -18598.982    1422.1344   -20021.116    11.669358   0.94393226 
    3000    237.82861    -474.3391    216009.12    -18595.14    1383.1066   -19978.247    12.125697   0.94393226 
    3100    247.78185   -320.78763    216009.12   -18586.488    1440.9903   -20027.479    12.449811   0.94393226 
    3200    243.20078   -232.61704    216009.12   -18654.142    1414.3488   -20068.491       12.637   0.94393226 
    3300    242.19067   -166.60834    216009.12   -18748.934    1408.4745   -20157.409    12.810989   0.94393226 
    3400    235.40851   -266.22952    216009.12    -18701.85    1369.0324   -20070.882    13.154755   0.94393226 
    3500    236.64317   -239.41586    216009.12   -18692.838    1376.2126   -20069.051    13.605859   0.94393226 
    3600    239.26626   -381.01733    216009.12   -18696.386    1391.4674   -20087.854    13.729831   0.94393226 
    3700    240.92617   -316.51262    216009.12   -18684.644    1401.1207   -20085.765    14.317986   0.94393226 
    3800    242.83476   -79.526682    216009.12   -18663.745    1412.2202   -20075.965    14.614716   0.94393226 
    3900    240.65312   -68.851803    216009.12   -18667.973    1399.5327   -20067.506    14.809944   0.94393226 
    4000    234.34158   -229.45965    216009.12   -18710.277    1362.8276   -20073.105    14.937259   0.94393226 
    4100    238.61543   -370.01968    216009.12    -18687.82    1387.6825   -20075.502    15.216159   0.94393226 
    4200     237.7682   -339.58655    216009.12   -18663.042    1382.7553   -20045.798    15.316212   0.94393226 
    4300     236.7483    -411.5991    216009.12   -18705.423    1376.8241   -20082.247    15.627326   0.94393226 
    4400    238.37526   -320.27002    216009.12   -18658.053    1386.2857   -20044.339    16.151248   0.94393226 
    4500    240.57031   -218.18544    216009.12   -18689.401    1399.0512   -20088.452    16.742132   0.94393226 
    4600    233.71124   -193.02692    216009.12   -18735.746    1359.1618   -20094.908    17.415655   0.94393226 
    4700    240.86567   -368.86598    216009.12   -18665.687    1400.7689   -20066.455    17.997014   0.94393226 
    4800    243.14612    -432.3333    216009.12   -18643.373     1414.031   -20057.404     18.25034   0.94393226 
    4900    245.41435   -232.68679    216009.12   -18606.379     1427.222   -20033.601    18.554114   0.94393226 
    5000    237.81918   -287.96911    216009.12   -18644.304    1383.0518   -20027.356    18.872439   0.94393226 
    5100    240.07972   -434.46207    216009.12   -18623.506    1396.1981   -20019.704    18.858256   0.94393226 
    5200    236.89694   -252.48059    216009.12   -18658.086    1377.6885   -20035.775    18.986339   0.94393226 
    5300    235.29929   -297.32515    216009.12    -18718.06    1368.3972   -20086.458    19.515204   0.94393226 
    5400    239.63291   -412.40644    216009.12   -18704.872    1393.5997   -20098.472      20.3072   0.94393226 
    5500    239.07554   -381.25587    216009.12   -18690.728    1390.3582   -20081.086    20.738589   0.94393226 
    5600    229.85479   -433.23175    216009.12   -18721.064    1336.7344   -20057.799    21.104925   0.94393226 
    5700    244.99086   -296.04387    216009.12   -18673.425    1424.7592   -20098.184    21.559799   0.94393226 
    5800    241.25712   -294.84108    216009.12   -18669.921    1403.0453   -20072.966     22.41589   0.94393226 
    5900    241.48881   -130.94845    216009.12   -18695.235    1404.3928   -20099.628     22.73268   0.94393226 
    6000    242.73479    -238.2983    216009.12   -18710.754    1411.6388   -20122.392    23.163051   0.94393226 
    6100    236.58641    -182.5034    216009.12   -18738.573    1375.8825   -20114.455    23.902521   0.94393226 
    6200    234.89712     -303.635    216009.12    -18737.69    1366.0584   -20103.748    24.154068   0.94393226 
    6300    242.41894   -336.08808    216009.12   -18676.451     1409.802   -20086.253     24.31853   0.94393226 
    6400    236.83412   -390.57222    216009.12   -18701.008    1377.3231   -20078.331    24.850303   0.94393226 
    6500    236.94406   -316.71878    216009.12   -18707.775    1377.9625   -20085.737    24.921041   0.94393226 
    6600    243.37588   -388.00779    216009.12   -18743.401    1415.3671   -20158.768    25.346376   0.94393226 
    6700    232.18063   -335.99846    216009.12   -18758.276    1350.2605   -20108.536    25.656339   0.94393226 
    6800    235.89812   -272.58994    216009.12   -18749.732    1371.8797   -20121.611     25.53975   0.94393226 
    6900    238.75201   -198.36718    216009.12   -18713.339    1388.4768   -20101.816    25.762509   0.94393226 
    7000    238.52042    -210.0086    216009.12   -18701.025    1387.1299   -20088.155    26.105974   0.94393226 
    7100    235.69904   -106.61121    216009.12   -18704.774     1370.722   -20075.496    26.165948   0.94393226 
    7200    236.46456    -324.5638    216009.12    -18746.08    1375.1739   -20121.254    26.400498   0.94393226 
    7300    233.94536   -417.12137    216009.12     -18767.4    1360.5234   -20127.923    26.594307   0.94393226 
    7400    238.05869   -352.85223    216009.12   -18726.713    1384.4447   -20111.157    26.911907   0.94393226 
    7500    237.54618   -452.37753    216009.12   -18711.476    1381.4642    -20092.94    27.043903   0.94393226 
    7600    237.84481   -201.11291    216009.12   -18665.784    1383.2008   -20048.984    27.561275   0.94393226 
    7700    242.15073   -357.45792    216009.12   -18677.628    1408.2422   -20085.871    27.905106   0.94393226 
    7800    237.29125   -280.64195    216009.12   -18740.079    1379.9816   -20120.061    28.489144   0.94393226 
    7900    240.44896   -250.04879    216009.12   -18714.865    1398.3455    -20113.21    28.972759   0.94393226 
    8000    241.84489     -137.444    216009.12   -18661.353    1406.4635   -20067.816    29.284061   0.94393226 
    8100    244.40494   -458.61725    216009.12   -18643.548    1421.3517     -20064.9     29.55108   0.94393226 
    8200     242.3342   -353.33758    216009.12   -18645.683    1409.3092   -20054.992    29.690371   0.94393226 
    8300    249.34087   -369.43371    216009.12   -18612.505    1450.0569   -20062.562    29.781345   0.94393226 
    8400    249.60544   -287.18718    216009.12   -18602.003    1451.5955   -20053.598    30.193156   0.94393226 
    8500    242.30731   -373.84454    216009.12   -18627.768    1409.1528   -20036.921    30.695155   0.94393226 
    8600    240.00193   -215.78907    216009.12   -18636.165    1395.7457   -20031.911    31.058877   0.94393226 
    8700    235.24358      -277.56    216009.12    -18644.94    1368.0732   -20013.013    31.854476   0.94393226 
    8800    238.30085   -267.08852    216009.12   -18650.139     1385.853   -20035.992    31.985565   0.94393226 
    8900    241.00105   -484.39027    216009.12   -18689.161    1401.5561   -20090.717    31.880872   0.94393226 
    9000    241.27393   -235.72117    216009.12   -18659.998    1403.1431   -20063.141    32.464495   0.94393226 
    9100    239.01274    -297.2328    216009.12   -18680.991     1389.993   -20070.984     33.03821   0.94393226 
    9200    240.67163   -287.84815    216009.12   -18635.505    1399.6404   -20035.146    33.570066   0.94393226 
    9300    243.21448   -371.40796    216009.12   -18693.461    1414.4285   -20107.889    33.959541   0.94393226 
    9400    244.02763    -310.6545    216009.12   -18689.713    1419.1574    -20108.87    33.900626   0.94393226 
    9500    232.80136    -350.7976    216009.12   -18718.329    1353.8704   -20072.199    33.559781   0.94393226 
    9600    236.18674      -180.56    216009.12   -18733.667    1373.5583   -20107.225    34.066519   0.94393226 
    9700    239.82778   -286.07856    216009.12   -18695.781    1394.7329   -20090.514    34.530679   0.94393226 
    9800    241.18389   -290.66018    216009.12   -18649.798    1402.6195   -20052.418    35.022624   0.94393226 
    9900    244.90069   -480.51863    216009.12   -18674.557    1424.2348   -20098.791    35.495076   0.94393226 
   10000    239.49457   -328.28967    216009.12   -18670.897    1392.7951   -20063.692     35.88565   0.94393226 
Loop time of 14.6947 on 160 procs for 10000 steps with 9248 atoms

Performance: 293.983 ns/day, 0.082 hours/ns, 680.516 timesteps/s
97.7% CPU use with 160 MPI tasks x no OpenMP threads

MPI task timing breakdown:
Section |  min time  |  avg time  |  max time  |%varavg| %total
---------------------------------------------------------------
Pair    | 0.00045443 | 2.9601     | 12.113     | 236.9 | 20.14
Neigh   | 0.00032401 | 0.095284   | 0.37879    |  39.4 |  0.65
Comm    | 0.015689   | 3.5301     | 11.755     | 220.6 | 24.02
Output  | 0.17493    | 0.17511    | 0.18197    |   0.1 |  1.19
Modify  | 0.41873    | 7.7599     | 14.336     | 220.4 | 52.81
Other   |            | 0.1742     |            |       |  1.19

Nlocal:    57.8 ave 196 max 0 min
Histogram: 72 20 28 0 0 0 0 0 13 27
Nghost:    535.531 ave 923 max 0 min
Histogram: 24 0 0 8 8 38 34 16 20 12
Neighs:    0 ave 0 max 0 min
Histogram: 160 0 0 0 0 0 0 0 0 0
FullNghs:  5906.01 ave 23631 max 0 min
Histogram: 102 18 0 0 0 0 0 1 21 18

Total # of neighbors = 944962
Ave neighs/atom = 102.18
Neighbor list builds = 568
Dangerous builds = 0
write_data 	    ${DIR}/data.${NAME}_eq
write_data 	    run_22/data.${NAME}_eq
write_data 	    run_22/data.ibeam_cooling_22_eq

undump              1
unfix               4



################################################
#######         Run Simulation         #########
################################################

reset_timestep      0
timestep	    10.0
log                 ${DIR}/log.run_${NAME}
log                 run_22/log.run_${NAME}
log                 run_22/log.run_ibeam_cooling_22
