
### Dimensions ###


### IMPORT ATOMS ###
read_data ../Box_Setup/data.Ibeam_240K
Reading data file ...
  orthogonal box = (0.0000000 0.0000000 0.0000000) to (68.908000 85.848302 27.975384)
  8 by 8 by 2 MPI processor grid
  reading atoms ...
  8493 atoms
  reading velocities ...
  8493 velocities
  read_data CPU = 0.020 seconds
group water type 2
1689 atoms in group water
group graphite type 1
6804 atoms in group graphite


# Define potential
#
pair_style          sw
pair_coeff * * MLC_e.sw C mW

# Add velocity/set timestep
#

fix		1 graphite setforce 0.0 0.0 0.0
velocity 	graphite set 0.0 0.0 0.0
velocity            water create ${START_TEMP} ${SEED} rot yes dist gaussian
velocity            water create 240 ${SEED} rot yes dist gaussian
velocity            water create 240 8613 rot yes dist gaussian
timestep            5.0

# Define output
#
compute 1 water msd
compute 2 water temp


thermo	            100
thermo_style custom step c_2 press vol etotal ke pe c_1[4] density

# Neighbor lists
#
neigh_modify        delay 0 every 1 check yes


# Set fixes
#
fix                 2 water momentum 10 linear 1 1 1 rescale
fix		3 water nvt temp ${START_TEMP} ${START_TEMP} $(100.0*dt)
fix		3 water nvt temp 240 ${START_TEMP} $(100.0*dt)
fix		3 water nvt temp 240 240 $(100.0*dt)
fix		3 water nvt temp 240 240 500

# Run 0.05 ns equilibration
#
dump                1 all custom 100 ${DIR}/eq.${NAME}.dump id type x y z vx vy vz
dump                1 all custom 100 run_8/eq.${NAME}.dump id type x y z vx vy vz
dump                1 all custom 100 run_8/eq.ibeam_cooling_8.dump id type x y z vx vy vz
run                 10000
Neighbor list info ...
  update every 1 steps, delay 0 steps, check yes
  max neighbors/atom: 2000, page size: 100000
  master list distance cutoff = 6.6747184
  ghost atom cutoff = 6.6747184
  binsize = 3.3373592, bins = 21 26 9
  1 neighbor lists, perpetual/occasional/extra = 1 0 0
  (1) pair sw, perpetual
      attributes: full, newton on
      pair build: full/bin/atomonly
      stencil: full/bin/3d
      bin: standard
Per MPI rank memory allocation (min/avg/max) = 3.603 | 4.507 | 4.728 Mbytes
Step c_2 Press Volume TotEng KinEng PotEng c_1[4] Density 
       0          240   -298.97748    165492.15   -16025.669    1207.5858   -17233.255            0    1.1252403 
     100    236.93025   -567.92226    165492.15   -16050.509      1192.14   -17242.649   0.94012881    1.1252403 
     200    235.79056   -459.33147    165492.15   -16090.536    1186.4055   -17276.942    1.3365363    1.1252403 
     300    240.02402   -502.00114    165492.15   -16124.409    1207.7066   -17332.115    1.7270291    1.1252403 
     400    234.81095   -409.25638    165492.15   -16192.313    1181.4765    -17373.79    2.1550581    1.1252403 
     500    235.89298   -398.20592    165492.15   -16185.197    1186.9208   -17372.118    2.5106459    1.1252403 
     600    241.48728   -423.67131    165492.15    -16138.12    1215.0692   -17353.189    2.9287684    1.1252403 
     700    230.25147   -387.79527    165492.15    -16115.97     1158.535   -17274.505    3.3414926    1.1252403 
     800    246.61034   -250.03314    165492.15   -16082.603    1240.8464    -17323.45    3.7984927    1.1252403 
     900    235.01011   -630.23599    165492.15   -16060.455    1182.4786   -17242.933    4.2618892    1.1252403 
    1000    240.48438   -566.83042    165492.15   -16031.176     1210.023   -17241.199     4.698796    1.1252403 
    1100    245.39135   -502.10699    165492.15   -15977.253    1234.7129   -17211.966    5.1257675    1.1252403 
    1200    246.87993   -646.47326    165492.15   -15980.424    1242.2029   -17222.627    5.6020474    1.1252403 
    1300    242.64145     -493.856    165492.15   -16051.131    1220.8765   -17272.007    5.9028303    1.1252403 
    1400    235.96182   -235.96396    165492.15   -16080.333    1187.2672     -17267.6    6.3667355    1.1252403 
    1500    233.10934   -467.17596    165492.15    -16102.26    1172.9146   -17275.174    6.8216807    1.1252403 
    1600    239.09893    -436.8497    165492.15   -16077.562    1203.0519   -17280.614    7.1659214    1.1252403 
    1700    244.83195   -485.29122    165492.15   -16023.232    1231.8982    -17255.13    7.4949978    1.1252403 
    1800    234.69768    -636.4351    165492.15   -16017.077    1180.9066   -17197.984     8.163821    1.1252403 
    1900    244.07674   -469.78708    165492.15   -16024.638    1228.0983   -17252.736    8.7121382    1.1252403 
    2000    233.63853   -271.87122    165492.15    -16068.88    1175.5773   -17244.457     9.064406    1.1252403 
    2100     240.2458   -526.56221    165492.15   -16076.728    1208.8225   -17285.551    9.4626097    1.1252403 
    2200    243.35948   -558.46476    165492.15   -16000.339    1224.4894   -17224.828    9.9883097    1.1252403 
    2300    244.99825   -286.35349    165492.15   -15978.851     1232.735   -17211.586    10.493405    1.1252403 
    2400    245.97778   -356.23331    165492.15   -15991.376    1237.6636   -17229.039    10.625813    1.1252403 
    2500    245.35063   -581.40598    165492.15   -16037.874    1234.5081   -17272.382    10.994821    1.1252403 
    2600    241.21718   -555.54708    165492.15   -16074.915    1213.7102   -17288.625    11.392486    1.1252403 
    2700    236.41613   -392.51282    165492.15   -16077.905    1189.5531   -17267.458    11.796901    1.1252403 
    2800    235.12197   -360.39898    165492.15   -16054.399    1183.0414    -17237.44    12.147341    1.1252403 
    2900    237.23923   -571.20346    165492.15   -16031.012    1193.6947   -17224.707     12.79766    1.1252403 
    3000    241.80643   -480.92686    165492.15   -16025.173     1216.675   -17241.848    12.984844    1.1252403 
    3100    240.25052    -645.0694    165492.15   -16031.524    1208.8463    -17240.37     13.35817    1.1252403 
    3200    239.02816   -502.50726    165492.15    -16032.39    1202.6958   -17235.086    13.658999    1.1252403 
    3300    241.28585   -485.67729    165492.15   -16038.478    1214.0557   -17252.534    14.155943    1.1252403 
    3400    241.11802   -402.61137    165492.15   -16043.793    1213.2112   -17257.004    14.432251    1.1252403 
    3500    241.29749   -552.54808    165492.15   -16056.833    1214.1142   -17270.947    14.890502    1.1252403 
    3600    243.21443   -509.76295    165492.15   -16071.398    1223.7595   -17295.157    15.455145    1.1252403 
    3700    227.37325   -713.75365    165492.15   -16088.099    1144.0529   -17232.152    15.778302    1.1252403 
    3800     231.4837   -582.90046    165492.15   -16068.131    1164.7351   -17232.866    16.115923    1.1252403 
    3900    241.76012   -333.54666    165492.15   -16015.544     1216.442   -17231.986     16.53217    1.1252403 
    4000    244.18246   -571.11311    165492.15   -16002.963    1228.6302   -17231.594     17.17009    1.1252403 
    4100    236.84216   -505.71237    165492.15    -16007.25    1191.6967   -17198.946    17.742371    1.1252403 
    4200    235.45339   -482.95723    165492.15   -16052.531     1184.709    -17237.24    18.272424    1.1252403 
    4300    234.27432   -496.78508    165492.15   -16087.803    1178.7764    -17266.58     18.61198    1.1252403 
    4400    239.59446   -87.383441    165492.15     -16062.5    1205.5453   -17268.046    18.782692    1.1252403 
    4500    236.36622   -514.29971    165492.15   -16026.095     1189.302   -17215.397    19.099163    1.1252403 
    4600    240.08214   -597.07444    165492.15   -15987.785    1207.9991   -17195.784    20.026413    1.1252403 
    4700    248.40593   -504.56931    165492.15   -15961.988    1249.8811   -17211.869    20.659342    1.1252403 
    4800    247.69594    -458.3788    165492.15    -15974.58    1246.3087   -17220.889    20.961179    1.1252403 
    4900    235.84227   -430.64904    165492.15   -16018.046    1186.6657   -17204.712    21.330355    1.1252403 
    5000    244.58827   -708.59117    165492.15   -16060.312    1230.6722   -17290.985    21.815867    1.1252403 
    5100    236.82158   -426.92144    165492.15     -16084.4    1191.5932   -17275.994    22.026044    1.1252403 
    5200    236.49433   -266.69173    165492.15    -16087.82    1189.9466   -17277.766      22.9105    1.1252403 
    5300    247.41052   -362.75784    165492.15   -16044.287    1244.8726   -17289.159    23.525465    1.1252403 
    5400    243.98571   -669.89035    165492.15   -16012.591    1227.6403   -17240.232    23.543965    1.1252403 
    5500    245.10699   -585.27893    165492.15   -16038.328    1233.2821    -17271.61    24.208166    1.1252403 
    5600    237.82607   -264.58157    165492.15   -16104.417    1196.6474   -17301.065    24.560043    1.1252403 
    5700    239.05953   -644.35096    165492.15   -16117.891    1202.8537   -17320.744    24.707162    1.1252403 
    5800    235.05842   -431.41793    165492.15   -16113.109    1182.7217   -17295.831    24.641805    1.1252403 
    5900    237.89231   -623.49798    165492.15   -16097.971    1196.9807   -17294.952    25.055179    1.1252403 
    6000    241.33328   -339.41521    165492.15   -16067.748    1214.2943   -17282.043    25.411326    1.1252403 
    6100    242.91289   -555.51569    165492.15   -16050.901    1222.2423   -17273.144    25.809446    1.1252403 
    6200    244.34255    -201.0495    165492.15   -16048.693    1229.4358   -17278.129    26.073598    1.1252403 
    6300    237.12987   -574.14101    165492.15   -16104.861    1193.1444   -17298.006    26.676736    1.1252403 
    6400    234.76443   -499.25069    165492.15    -16135.85    1181.2424   -17317.092    27.173969    1.1252403 
    6500    232.92176   -317.99182    165492.15   -16127.878    1171.9708   -17299.849    27.556716    1.1252403 
    6600    243.11383   -292.99429    165492.15   -16090.654    1223.2533   -17313.907    27.857857    1.1252403 
    6700    240.32828   -373.06007    165492.15   -16033.528    1209.2376   -17242.765    28.255827    1.1252403 
    6800    241.86705   -639.54132    165492.15   -16026.127      1216.98   -17243.107    28.721338    1.1252403 
    6900    240.65053   -580.48075    165492.15   -16041.728     1210.859   -17252.587    28.959873    1.1252403 
    7000    238.22663   -531.21055    165492.15   -16062.851    1198.6629   -17261.513    29.163918    1.1252403 
    7100    239.19176   -405.89725    165492.15   -16101.434     1203.519   -17304.953    29.275639    1.1252403 
    7200    232.05721   -302.94664    165492.15    -16127.94    1167.6208    -17295.56    29.931054    1.1252403 
    7300    233.68586   -424.77503    165492.15   -16109.711    1175.8155   -17285.526    30.368399    1.1252403 
    7400    237.38308   -309.79502    165492.15   -16074.519    1194.4184   -17268.937    30.931857    1.1252403 
    7500    236.67146   -561.89102    165492.15   -16058.846    1190.8378   -17249.684     30.98894    1.1252403 
    7600     239.8107   -339.35734    165492.15   -16047.336    1206.6333   -17253.969     31.51305    1.1252403 
    7700    236.10914   -630.37347    165492.15   -16074.984    1188.0085   -17262.993    31.987113    1.1252403 
    7800    231.80619   -476.86484    165492.15    -16128.81    1166.3577   -17295.167    32.335322    1.1252403 
    7900    233.64991   -511.40128    165492.15   -16123.922    1175.6346   -17299.557    32.351517    1.1252403 
    8000     236.1071   -426.42714    165492.15   -16075.123    1187.9982   -17263.121    32.214757    1.1252403 
    8100    246.31185   -601.85114    165492.15   -16054.962    1239.3445   -17294.307    32.120832    1.1252403 
    8200    240.32501   -326.96697    165492.15   -16062.628    1209.2211   -17271.849    31.980547    1.1252403 
    8300    240.44919   -420.50843    165492.15   -16082.393    1209.8459   -17292.239    31.676278    1.1252403 
    8400     234.3638   -356.56735    165492.15   -16112.199    1179.2266   -17291.426    31.803304    1.1252403 
    8500    240.06509   -435.41569    165492.15   -16178.833    1207.9133   -17386.746    32.220308    1.1252403 
    8600    241.88728   -456.62519    165492.15   -16176.877    1217.0818   -17393.959    32.491274    1.1252403 
    8700    236.78291   -589.04892    165492.15   -16142.575    1191.3987   -17333.974    32.744829    1.1252403 
    8800    236.80519   -473.00741    165492.15   -16110.647    1191.5107   -17302.158    33.251744    1.1252403 
    8900    242.06564   -392.16838    165492.15   -16105.586    1217.9793   -17323.565    33.142117    1.1252403 
    9000     238.0261   -545.64296    165492.15   -16120.549    1197.6539   -17318.203    33.454267    1.1252403 
    9100    233.26691   -416.31294    165492.15   -16121.362    1173.7075    -17295.07    33.532006    1.1252403 
    9200    243.71375   -433.15346    165492.15   -16060.949    1226.2719   -17287.221    33.754323    1.1252403 
    9300     239.2846   -520.57494    165492.15   -16031.822    1203.9861   -17235.809    34.336694    1.1252403 
    9400    238.50574   -671.68733    165492.15   -16050.976    1200.0672   -17251.043    34.742092    1.1252403 
    9500    239.68237    -565.2958    165492.15   -16095.583    1205.9876   -17301.571     35.05316    1.1252403 
    9600    235.04511   -481.05469    165492.15   -16112.151    1182.6547   -17294.806    35.553464    1.1252403 
    9700    237.38657   -352.53507    165492.15   -16108.816     1194.436   -17303.252    36.135312    1.1252403 
    9800    243.30368   -597.73335    165492.15   -16082.268    1224.2086   -17306.477    36.149867    1.1252403 
    9900    250.91238    -255.4617    165492.15   -16063.259    1262.4926   -17325.751    36.249571    1.1252403 
   10000    240.48394   -462.28286    165492.15    -16104.43    1210.0208   -17314.451    36.404449    1.1252403 
Loop time of 6.0059 on 128 procs for 10000 steps with 8493 atoms

Performance: 719.293 ns/day, 0.033 hours/ns, 1665.029 timesteps/s
96.7% CPU use with 128 MPI tasks x no OpenMP threads

MPI task timing breakdown:
Section |  min time  |  avg time  |  max time  |%varavg| %total
---------------------------------------------------------------
Pair    | 0.00074816 | 1.8389     | 4.4988     | 115.8 | 30.62
Neigh   | 0.0042305  | 0.13254    | 0.31086    |  27.8 |  2.21
Comm    | 0.19787    | 1.7074     | 3.6846     |  77.4 | 28.43
Output  | 0.15079    | 0.15088    | 0.15174    |   0.0 |  2.51
Modify  | 0.19825    | 2.0946     | 5.5698     | 132.6 | 34.88
Other   |            | 0.0815     |            |       |  1.36

Nlocal:        66.3516 ave         140 max           0 min
Histogram: 32 4 9 19 0 0 2 28 25 9
Nghost:        698.891 ave         916 max         491 min
Histogram: 17 5 14 16 14 12 13 19 5 13
Neighs:         0.00000 ave           0 max           0 min
Histogram: 128 0 0 0 0 0 0 0 0 0
FullNghs:      6947.94 ave       16650 max           0 min
Histogram: 42 22 0 0 0 0 15 28 14 7

Total # of neighbors = 889336
Ave neighs/atom = 104.71400
Neighbor list builds = 569
Dangerous builds = 0
write_data 	    ${DIR}/data.${NAME}_eq
write_data 	    run_8/data.${NAME}_eq
write_data 	    run_8/data.ibeam_cooling_8_eq
System init for write_data ...

undump              1
unfix 		3



################################################
#######         Run Simulation         #########
################################################

reset_timestep      0
timestep	    10.0
log                 ${DIR}/log.run_${NAME}
log                 run_8/log.run_${NAME}
log                 run_8/log.run_ibeam_cooling_8
