
# Set production fixes - Nose/Hoover
#
fix                 4 water temp/csvr ${START_TEMP} ${END_TEMP} 500.0 928347
fix                 4 water temp/csvr 235 ${END_TEMP} 500.0 928347
fix                 4 water temp/csvr 235 225 500.0 928347


## divide "droplet" into core and surface
#region		core_reg cylinder z 135 135 44.6 20 INF units box
#region		surface_reg cylinder z 135 135 44.6 20 INF units box side out
#group		core dynamic all region core_reg
#group		surface dynamic all region surface_reg

## compute pressure core
#compute        peratom_core core stress/atom NULL
#compute        p_core core reduce sum c_peratom_core[1] c_peratom_core[2] c_peratom_core[3]
#variable       press_core equal -(c_p_core[1]+c_p_core[2]+c_p_core[3])/(3*1249982.5)


## compute pressure surface
#compute        peratom_surf surface stress/atom NULL
#compute        p_surf surface reduce sum c_peratom_surf[1] c_peratom_surf[2] #c_peratom_surf[3]
#variable       press_surf equal -(c_p_surf[1]+c_p_surf[2]+c_p_surf[3])/(3*42395)

## compute total pressure of drop
compute        peratom water stress/atom NULL
compute        p water reduce sum c_peratom[1] c_peratom[2] c_peratom[3]
variable       press equal -(c_p[1]+c_p[2]+c_p[3])/(3*50402)


# compute order parameter
compute        3 all orientorder/atom nnn NULL cutoff 3.5

# compute center of mass of bridge
compute 	4 water com

# Run simulation
thermo_style        custom step c_2 press vol etotal ke pe v_press c_1[4] c_4[*]
thermo              200
dump		     1 water custom 400 ${DIR}/prod.${NAME}.dump id type x y z vx vy vz c_3[*] c_peratom[*]
dump		     1 water custom 400 run_17/prod.${NAME}.dump id type x y z vx vy vz c_3[*] c_peratom[*]
dump		     1 water custom 400 run_17/prod.ibeam_cooling_17.dump id type x y z vx vy vz c_3[*] c_peratom[*]
run                 ${STEPS}
run                 4000000
Neighbor list info ...
  update every 1 steps, delay 0 steps, check yes
  max neighbors/atom: 2000, page size: 100000
  master list distance cutoff = 6.67472
  ghost atom cutoff = 6.67472
  binsize = 3.33736, bins = 24 25 11
  2 neighbor lists, perpetual/occasional/extra = 1 1 0
  (1) pair sw, perpetual
      attributes: full, newton on
      pair build: full/bin/atomonly
      stencil: full/bin/3d
      bin: standard
  (2) compute orientorder/atom, occasional, copy from (1)
      attributes: full, newton on
      pair build: copy
      stencil: none
      bin: none
Per MPI rank memory allocation (min/avg/max) = 6.149 | 6.791 | 7.276 Mbytes
Step c_2 Press Volume TotEng KinEng PotEng v_press c_1[4] c_4[1] c_4[2] c_4[3] 
       0    238.35349   -480.40397    216156.16   -20213.228    1509.7837   -21723.012   -1381.4747    32.780728    39.429677    39.229218    23.661024 
     200    232.44357   -443.67395    216156.16   -20223.074     1472.349   -21695.423   -1259.8114    33.621879    39.431757    39.228201    23.670033 
     400    236.15019   -488.98729    216156.16   -20218.031    1495.8276   -21713.859    -1460.389    34.723958    39.431409    39.227191    23.679945 
     600    237.37442   -559.17858    216156.16   -20123.285    1503.5821   -21626.867   -1737.6917     35.90913    39.432741    39.224973    23.713057 
     800     239.1794   -457.83933    216156.16   -20128.218    1515.0153   -21643.233   -1295.8701    36.919439     39.43297    39.224296    23.726712 
    1000    230.90546   -427.16644    216156.16   -20237.007    1462.6063   -21699.613   -1178.3026    38.373526    39.435369     39.22276    23.739182 
    1200    237.99013   -281.61826    216156.16   -20215.327    1507.4822   -21722.809   -520.49516    39.859717     39.43471    39.223781    23.743378 
    1400    233.81664   -410.99628    216156.16   -20148.547    1481.0464   -21629.593   -1113.9499    41.302777    39.430647    39.224401    23.728422 
    1600    236.78629   -357.00515    216156.16   -20145.632    1499.8568   -21645.489   -838.85246    41.646747    39.430135    39.224656    23.741167 
    1800    240.28544   -455.94252    216156.16    -20149.09    1522.0212   -21671.111   -1265.6424    42.517541     39.42972    39.227739    23.758649 
    2000    242.44119   -306.42456    216156.16   -20109.781    1535.6762   -21645.457   -603.36802    44.301246    39.429778    39.228339    23.739407 
    2200    239.55468   -374.87575    216156.16   -20169.087    1517.3924    -21686.48    -920.4761    46.235688    39.429309    39.227636    23.744801 
    2400    237.55883   -516.84556    216156.16   -20157.568    1504.7502   -21662.318   -1543.2947    48.888417     39.42782    39.229528    23.739073 
    2600    230.23852   -509.94171    216156.16   -20185.165    1458.3818   -21643.547   -1482.1166    50.504624    39.428283    39.230534    23.722021 
    2800    241.55782    -504.9187    216156.16   -20077.041    1530.0807   -21607.121   -1456.6409    51.511374    39.426641    39.232143    23.703768 
    3000    236.32944   -506.10977    216156.16     -20127.5     1496.963   -21624.463   -1541.5859     51.91883    39.427055    39.232965    23.693845 
    3200    234.21018   -399.57575    216156.16   -20202.846    1483.5391   -21686.385   -1055.1661    51.447085    39.427574    39.231948    23.713136 
    3400    234.22002   -437.19323    216156.16   -20182.906    1483.6015   -21666.507   -1185.2007    53.883335    39.427797     39.23139    23.712851 
    3600    232.73336   -412.00035    216156.16   -20134.978    1474.1846   -21609.163   -1090.7529    54.704202    39.425429    39.232444    23.727925 
    3800    237.58185   -233.05545    216156.16   -20099.567     1504.896   -21604.463   -320.12725    56.902868    39.425293    39.234619    23.764308 
    4000    233.15576   -423.19531    216156.16   -20141.089    1476.8602   -21617.949   -1186.6325    57.880221    39.424366    39.234593    23.756278 
    4200    243.04275    -348.4334    216156.16   -20105.095    1539.4866   -21644.582   -800.31556    59.643197    39.424359    39.235935    23.771627 
    4400    231.45712   -637.97894    216156.16   -20171.618    1466.1006   -21637.718   -2043.8273    62.665003    39.423393     39.23332    23.803044 
    4600    234.40203   -374.98435    216156.16   -20303.336    1484.7544    -21788.09   -941.93808    63.810507    39.423334    39.232553    23.797445 
    4800    237.71477   -418.10898    216156.16   -20191.612     1505.738    -21697.35   -1155.6576    64.757284    39.420625    39.234106    23.775086 
    5000    235.16923   -452.54039    216156.16   -20231.687     1489.614   -21721.301   -1251.9115    65.543667    39.420915    39.234541    23.763441 
    5200    235.23393   -400.12207    216156.16   -20225.616    1490.0238    -21715.64   -1026.9697    66.414467    39.421136     39.23693    23.767286 
    5400    231.33981   -297.66762    216156.16     -20234.4    1465.3576   -21699.758   -617.57366    66.961349    39.415669    39.239601    23.760996 
    5600    234.33286   -400.01026    216156.16    -20253.08    1484.3162   -21737.396   -1044.4944    67.798658    39.414913    39.240262    23.784026 
    5800    231.29343   -297.44446    216156.16   -20214.659    1465.0638   -21679.723    -580.4235    68.345665    39.415908    39.240449    23.799818 
    6000    234.21249   -343.54777    216156.16    -20265.32    1483.5537   -21748.874   -772.21943    68.548518    39.415704    39.241749    23.793084 
    6200    232.04931   -378.08952    216156.16   -20254.112    1469.8517   -21723.964   -956.17094    68.810609    39.417255    39.243098     23.77326 
    6400    233.18965   -225.42343    216156.16   -20222.734    1477.0749   -21699.809   -260.11914    69.072393    39.416278     39.24192    23.750637 
    6600    242.29856   -341.07952    216156.16   -20247.732    1534.7727   -21782.505   -812.50642    68.929876    39.417464     39.24202    23.745469 
    6800    231.24094   -284.46418    216156.16   -20264.114    1464.7313   -21728.845   -562.61347    70.733081    39.418948    39.241276    23.752293 
    7000    240.42133   -404.57946    216156.16   -20222.118    1522.8819       -21745   -1049.6614    71.036002    39.420586    39.243313    23.745382 
    7200    223.62617   -485.33381    216156.16   -20328.661    1416.4976   -21745.158   -1397.5453    71.286985    39.420873    39.242353     23.74865 
    7400    232.49212   -401.48014    216156.16    -20282.81    1472.6566   -21755.467   -1038.6207    71.321234    39.421721    39.243418     23.74667 
    7600    246.99205    -487.9542    216156.16   -20218.823    1564.5023   -21783.326   -1448.4307     71.87663    39.419882    39.243262     23.74137 
    7800    231.91052   -336.43468    216156.16   -20341.273    1468.9726   -21810.246   -749.11307    72.245106    39.416998    39.240956    23.729503 
    8000    239.00151   -416.12888    216156.16   -20205.312    1513.8884   -21719.201   -1111.0539    73.891662    39.415066    39.243522    23.728684 
    8200    237.36014   -234.58253    216156.16   -20192.602    1503.4917   -21696.094   -311.28153    74.866454    39.416644    39.242479    23.739099 
    8400     236.8259   -377.36035    216156.16   -20157.573    1500.1077   -21657.681   -933.95723    75.393122    39.413813    39.241969    23.770745 
    8600    234.36986    -381.9992    216156.16   -20218.992    1484.5505   -21703.543   -992.33013    76.546185    39.412345    39.243097    23.767143 
    8800     229.3797   -299.37003    216156.16   -20240.524    1452.9418   -21693.466   -666.73042     77.00049    39.408949    39.244057    23.755874 
    9000    235.40252   -319.30667    216156.16   -20205.373    1491.0917   -21696.465   -742.95888    79.083238    39.407102     39.24606    23.746921 
    9200     236.0732   -459.11462    216156.16   -20167.084    1495.3399   -21662.424   -1350.5858    79.917286    39.408314    39.247633    23.751394 
    9400    228.16573   -551.11121    216156.16   -20205.299    1445.2522   -21650.551   -1699.7584    80.437889    39.408902    39.252037    23.733559 
    9600    227.84383   -270.87563    216156.16   -20200.224    1443.2132   -21643.437   -478.58771    81.949363    39.408034    39.254669    23.721456 
    9800    233.69343   -371.46956    216156.16    -20101.61    1480.2659   -21581.876   -948.96155    83.030574    39.405471     39.25509    23.692853 
   10000    234.61064   -248.12315    216156.16   -20117.408    1486.0757   -21603.484   -411.38408     83.53173    39.406185    39.256625    23.668055 
   10200    242.47139   -449.67127    216156.16   -20034.086    1535.8675   -21569.954   -1309.2534    84.631173    39.407261    39.258093    23.645108 
   10400    236.02891   -283.83729    216156.16   -20075.787    1495.0593   -21570.846    -578.8999    84.425394    39.408145    39.256823    23.637682 
   10600    239.01809   -422.80557    216156.16   -20134.997    1513.9935    -21648.99   -1143.1953    86.140437    39.409641    39.256666    23.651491 
   10800    231.23568   -556.54956    216156.16    -20218.05     1464.698   -21682.748   -1768.3142    87.165078     39.41075    39.257438    23.651764 
   11000    235.39733   -304.92993    216156.16   -20215.948    1491.0588   -21707.007   -657.45165    89.306958     39.41209    39.257616    23.653135 
   11200    235.07627    -255.3891    216156.16    -20200.85    1489.0251   -21689.875   -414.83796    89.083877    39.409271    39.258295    23.649891 
   11400    236.46765   -393.27652    216156.16   -20189.701    1497.8385   -21687.539   -997.24866    90.115477    39.406434    39.257921    23.639322 
   11600    239.55252   -357.57382    216156.16   -20111.242    1517.3787   -21628.621   -843.98424    91.541714     39.40613    39.260791    23.611162 
   11800    236.50422   -528.87751    216156.16   -20141.221    1498.0701   -21639.291    -1627.656    92.140459    39.403088    39.258684    23.618096 
   12000    236.37832   -465.46194    216156.16   -20122.715    1497.2726   -21619.987   -1308.0185    93.694213    39.402339    39.260551    23.623706 
   12200    233.60049   -281.76094    216156.16   -20101.807    1479.6772   -21581.484    -588.4839    96.380664    39.403188     39.26176    23.640447 
   12400    237.44183   -256.07579    216156.16   -20161.182    1504.0091   -21665.191   -400.03826    97.594059    39.401766     39.25996    23.648488 
   12600    241.45357   -333.04109    216156.16   -20119.372    1529.4204   -21648.792    -737.5295     97.89397    39.400576    39.260446    23.652037 
   12800    236.73131   -227.68649    216156.16   -20158.908    1499.5085   -21658.416    -350.0112    98.476126    39.400865    39.261705    23.645035 
   13000    237.76133   -348.14572    216156.16   -20167.466    1506.0329   -21673.499   -839.88826    99.893789    39.400829    39.264531    23.628927 
   13200    236.85151   -352.36798    216156.16    -20180.85    1500.2699    -21681.12   -824.70624    100.49194    39.402763     39.26639    23.638633 
   13400    226.44396   -514.79189    216156.16   -20267.585    1434.3462   -21701.931   -1566.3088    101.10455    39.402928    39.265355    23.616119 
   13600    230.47535   -292.37126    216156.16   -20222.486    1459.8819   -21682.367   -608.49853     101.3223    39.403456    39.266632    23.608541 
   13800    233.87439    -294.9849    216156.16   -20184.296    1481.4122   -21665.708   -680.35814    102.42266    39.404329    39.264617    23.601695 
   14000    234.96593   -440.19721    216156.16   -20135.626    1488.3262   -21623.952   -1289.4992    102.89252    39.403589    39.264098    23.611091 
   14200     233.0146   -526.09369    216156.16   -20161.177    1475.9661   -21637.143   -1578.5669    103.15559    39.403761    39.262576    23.609721 
   14400    228.89873   -360.56472    216156.16   -20226.686    1449.8952   -21676.581   -882.84966    104.46619    39.403506    39.262462     23.62537 
   14600    234.03919    -352.7534    216156.16   -20196.884     1482.456    -21679.34   -842.39721     105.2339    39.401202    39.264413    23.648011 
   14800    233.58629   -511.56851    216156.16   -20135.344    1479.5873   -21614.932   -1545.3924    106.34934    39.400793    39.265562    23.627407 
   15000     231.3569   -305.30981    216156.16   -20153.694    1465.4658    -21619.16   -665.65024    106.50813    39.402587    39.267139    23.637091 
   15200    238.53699   -212.21354    216156.16   -20117.455    1510.9461   -21628.402   -251.32003    106.93908    39.403552    39.268235    23.648927 
   15400    237.12759    -353.4528    216156.16   -20191.121    1502.0187    -21693.14   -856.04829    108.42787    39.402455    39.267418    23.633512 
   15600    238.33471    -404.8403    216156.16   -20068.288    1509.6648   -21577.952   -1066.7128    109.65751    39.403217    39.265471     23.61854 
   15800    238.41285   -418.96213    216156.16   -20115.249    1510.1598   -21625.409    -1166.396    109.76494    39.407724    39.263599    23.608274 
   16000    236.77693   -384.51699    216156.16   -20158.796    1499.7975   -21658.594   -956.49731    111.44744    39.406833    39.263078    23.594213 
   16200    237.66589   -400.36465    216156.16   -20134.742    1505.4283    -21640.17   -1028.8702     112.0308     39.40282     39.26058    23.598957 
   16400     239.3674   -249.87144    216156.16   -20193.375    1516.2061   -21709.581   -394.75425    114.38537    39.403657     39.25695    23.595896 
   16600    244.13916   -401.37174    216156.16   -20129.693    1546.4315   -21676.124   -1061.7132     114.9036    39.403647    39.256168    23.572707 
   16800    229.60233   -186.35968    216156.16   -20189.777     1454.352   -21644.129   -187.73276    116.16006    39.404038    39.255946    23.564674 
   17000    235.36226   -281.48369    216156.16   -20238.401    1490.8367   -21729.238    -521.2408    117.70642    39.406426    39.257214    23.567737 
   17200    237.38959   -146.29176    216156.16   -20257.681    1503.6782    -21761.36   -2.5090209    119.15442    39.405195    39.257655    23.562624 
   17400    224.57847   -382.29038    216156.16    -20282.33    1422.5297    -21704.86   -984.01105    121.19995    39.407198    39.254792    23.545857 
   17600    236.94772    -301.2656    216156.16   -20234.667    1500.8793   -21735.546   -626.29484    122.25105     39.40796    39.252566    23.535807 
   17800    231.30986   -341.14248    216156.16   -20260.437    1465.1679   -21725.605   -781.86835     123.4762    39.408757    39.252067    23.544719 
   18000    231.60086   -542.01632    216156.16   -20186.202    1467.0111   -21653.213     -1661.62    123.86179    39.409972    39.251823    23.560259 
   18200    236.32424   -208.03729    216156.16   -20212.043    1496.9301   -21708.973    -226.9012    123.65811    39.408868    39.253667    23.572926 
   18400    240.84736   -411.13476    216156.16   -20198.909    1525.5805   -21724.489   -1083.6424    124.10692    39.410013    39.252549    23.560768 
   18600    242.11636   -474.81782    216156.16   -20165.644    1533.6186   -21699.263   -1348.2287     125.1156    39.409558    39.251792    23.560163 
   18800    230.83555   -459.19021    216156.16   -20210.925    1462.1635   -21673.088   -1333.4964    126.26764    39.410793    39.252994    23.548665 
   19000    236.53304   -408.27205    216156.16   -20142.977    1498.2527    -21641.23   -1106.1051    126.93448    39.412179    39.254854    23.536081 
   19200     237.8469   -358.60779    216156.16    -20179.55    1506.5749   -21686.125   -898.95373    127.98546    39.413918    39.254819    23.557273 
   19400    236.69437   -444.15607    216156.16   -20144.683    1499.2746   -21643.958   -1223.7527    129.21367    39.414433    39.254977    23.563985 
   19600    240.26736   -354.52189    216156.16   -20178.782    1521.9067   -21700.689   -833.58491    129.05245    39.412984    39.255254     23.56752 
   19800    243.16566   -445.93491    216156.16    -20169.41    1540.2651   -21709.675   -1253.6207    129.26292    39.414201    39.256406    23.579475 
   20000    225.45198   -318.83496    216156.16   -20191.773    1428.0627   -21619.835   -747.57036    130.75396    39.414315    39.255847    23.595362 
   20200    233.45618    -455.0595    216156.16   -20225.748    1478.7631   -21704.511   -1290.7591    132.72014    39.415358    39.255061     23.60961 
   20400    234.44773    -369.1421    216156.16   -20146.029    1485.0438   -21631.073   -962.35181    133.66049    39.417296    39.258087    23.633939 
   20600    232.73118   -298.32283    216156.16   -20228.505    1474.1708   -21702.676   -664.21799    135.02985    39.418103    39.257774    23.619209 
   20800    236.88208   -252.35314    216156.16   -20163.531    1500.4635   -21663.995   -432.99604    136.72177    39.417505    39.253236    23.639674 
   21000    234.58849   -324.09173    216156.16   -20204.834    1485.9354   -21690.769   -771.56397    136.96945    39.418204    39.252935    23.623818 
   21200    237.13777   -471.85593    216156.16   -20184.712    1502.0831   -21686.795   -1331.8485    139.50622    39.418794    39.251043    23.636027 
   21400    236.87862   -282.42071    216156.16   -20205.679    1500.4416   -21706.121   -531.10412    140.35126    39.417777    39.252691    23.632728 
   21600    238.50111   -328.61697    216156.16   -20097.251    1510.7188    -21607.97   -762.09773    141.75447     39.41549    39.250499    23.619826 
   21800    228.82405   -338.19829    216156.16   -20206.127    1449.4222   -21655.549   -744.09374    141.99988    39.412762    39.250662    23.636053 
   22000    238.09391   -459.46434    216156.16   -20253.434    1508.1395   -21761.573    -1287.488    141.56704     39.40968    39.252237    23.608483 
   22200    228.98207   -378.68586    216156.16   -20290.382    1450.4231   -21740.805   -959.30104    143.69683    39.404299    39.252388    23.611006 
   22400    235.85522   -396.67117    216156.16   -20188.379    1493.9591   -21682.338   -1009.7575    144.59349    39.401752    39.253701    23.584697 
   22600    234.75848   -482.48654    216156.16   -20209.015    1487.0122   -21696.027   -1417.9943    145.30591    39.399864    39.254667    23.564593 
   22800    237.79217   -384.45539    216156.16   -20154.912    1506.2283    -21661.14   -991.07339    146.01336      39.4005    39.253225    23.557613 
   23000    229.99099   -341.64943    216156.16   -20262.929    1456.8139   -21719.742    -811.3367    146.85954    39.398631    39.251292    23.545322 
   23200    240.05681   -482.64664    216156.16   -20199.988     1520.573   -21720.561   -1421.2494    148.64632    39.399176    39.250927    23.531277 
   23400    231.88869   -465.43946    216156.16   -20196.991    1468.8343   -21665.825   -1347.4958    149.52134      39.3999    39.251837    23.531688 
   23600    243.33964   -208.07521    216156.16   -20156.096    1541.3671   -21697.463   -266.76158    150.84782    39.398424    39.254881    23.511142 
   23800    236.44766   -541.32041    216156.16   -20199.255    1497.7118   -21696.966   -1669.7816    152.18388    39.396174    39.254826    23.504137 
   24000    237.27576   -357.22131    216156.16   -20193.385    1502.9572   -21696.342   -870.69048    153.13093     39.39377    39.255522    23.521736 
   24200    235.82412   -285.65177    216156.16   -20232.837    1493.7622   -21726.599   -563.18218    154.45509    39.395125    39.256935    23.482777 
   24400    237.32345   -528.89764    216156.16   -20245.955    1503.2593   -21749.214   -1606.6162    154.20911     39.39522    39.257271    23.481965 
   24600    231.72041   -379.61493    216156.16   -20250.007    1467.7684   -21717.775   -953.43797     155.9041    39.393412    39.256679     23.50146 
   24800    233.88125   -477.03274    216156.16   -20241.067    1481.4556   -21722.523   -1396.8483    156.29259    39.391235    39.256992    23.512574 
   25000    232.19456   -490.23273    216156.16   -20231.276    1470.7717   -21702.048   -1446.1759    156.78392    39.390049    39.256534    23.495479 
   25200    227.70825   -379.30517    216156.16   -20331.124    1442.3545   -21773.478   -925.44728    157.32644    39.391438    39.258226    23.499853 
   25400    239.54214   -518.65077    216156.16     -20221.3     1517.313   -21738.613   -1542.2415    156.69289    39.392521     39.25789    23.521703 
   25600    243.37761   -294.20167    216156.16   -20112.336    1541.6077   -21653.944   -633.77504    158.32194    39.391488    39.257652    23.508595 
   25800    239.21953   -359.07383    216156.16   -20155.382    1515.2694   -21670.652   -902.24486    159.46232    39.391535    39.256372    23.510527 
   26000    241.10704   -454.32761    216156.16   -20214.928    1527.2254   -21742.153   -1306.7014    158.31936    39.392399    39.254244    23.527866 
   26200      233.627   -513.11338    216156.16   -20232.475    1479.8452    -21712.32   -1523.9089    158.87337    39.392793    39.254268    23.553495 
   26400    234.20998   -405.65593    216156.16   -20246.053    1483.5379   -21729.591   -1086.0828    159.51876    39.391579    39.255286    23.578408 
   26600    239.05035   -402.83432    216156.16    -20126.83    1514.1978   -21641.028   -1088.9901     160.2742    39.390219    39.254084    23.569035 
   26800    233.77979   -393.93308    216156.16   -20156.051     1480.813   -21636.864   -977.18609     161.6367    39.388575    39.253236    23.571842 
   27000    238.10019   -369.87867    216156.16   -20086.117    1508.1793   -21594.296   -890.20647     162.8263     39.38756    39.254162    23.571716 
   27200    243.83554   -358.71517    216156.16   -20126.642    1544.5083    -21671.15    -897.6158    164.75223    39.385915    39.255928    23.574651 
   27400    236.26334   -556.17154    216156.16   -20087.098    1496.5443   -21583.643   -1694.3677    166.46691    39.384694    39.255309     23.57218 
   27600    232.20637   -319.11204    216156.16   -20218.387    1470.8466   -21689.233   -685.98777    166.63638    39.385422    39.252073    23.563488 
   27800    234.10818   -298.32829    216156.16    -20121.26    1482.8931   -21604.153   -616.27119    167.09796    39.383706    39.251332    23.574495 
   28000    228.24091   -388.34173    216156.16   -20177.695    1445.7285   -21623.424   -1018.3692    169.31869     39.38242    39.251326     23.58393 
   28200    234.42724   -504.55153    216156.16   -20133.975     1484.914   -21618.889    -1442.964    169.43092    39.381081    39.249955    23.571832 
   28400    235.25911   -277.64654    216156.16    -20161.39    1490.1833   -21651.573   -479.58057    170.42074     39.38207    39.250198    23.546722 
   28600     230.8313     -498.697    216156.16   -20227.043    1462.1366    -21689.18    -1443.186    172.16918    39.381005    39.249422    23.543705 
   28800    232.69263   -251.94172    216156.16   -20246.027    1473.9266   -21719.954   -391.08857    172.43703    39.380644    39.248618    23.532908 
   29000     234.7479   -467.96753    216156.16     -20235.3    1486.9452   -21722.245   -1339.9748    173.97797    39.382732    39.249318    23.542021 
   29200    234.07423   -425.77238    216156.16   -20165.397     1482.678   -21648.075   -1125.6642    175.08222    39.382045    39.250735    23.533864 
   29400    234.28832   -397.26053    216156.16   -20187.168    1484.0341   -21671.202   -1033.9182    175.13355    39.380335    39.251399    23.548434 
   29600    236.32411    -284.7286    216156.16   -20171.696    1496.9292   -21668.625   -543.78954    175.06346    39.376717    39.253062    23.555728 
   29800     226.9983   -404.41349    216156.16   -20243.879    1437.8575   -21681.737   -1058.1658    176.66329    39.378575    39.249027    23.542535 
   30000    227.77337   -265.32271    216156.16   -20273.091     1442.767   -21715.858   -440.97901    177.43982    39.378821    39.248377    23.538394 
   30200    230.50293   -346.13069    216156.16   -20224.617    1460.0566   -21684.673   -855.07748    180.16077    39.380109    39.248991     23.53562 
   30400    228.33143   -364.21284    216156.16   -20195.978    1446.3018    -21642.28   -903.70235    180.66274    39.379679    39.252096    23.537537 
   30600    229.48383   -526.64536    216156.16   -20252.273    1453.6014   -21705.875   -1588.7166    181.37547    39.377985    39.255771    23.561534 
   30800    235.10947   -460.25349    216156.16   -20191.108    1489.2354   -21680.343   -1281.6639      183.194     39.37761    39.256057    23.564705 
   31000    229.44971   -287.90329    216156.16   -20168.204    1453.3853    -21621.59   -618.83017    183.86284    39.377131     39.25593    23.584984 
   31200    235.04629     -237.959    216156.16   -20142.954    1488.8352   -21631.789   -359.05402    185.39961     39.37727    39.255853    23.604401 
   31400    235.72154   -366.26873    216156.16   -20135.216    1493.1124   -21628.328   -872.20293     184.2823     39.37583    39.255076    23.611041 
   31600     230.5338   -574.40904    216156.16   -20189.543    1460.2521   -21649.795    -1820.684    185.97933    39.374948    39.252393    23.604213 
   31800    234.86755   -335.37664    216156.16   -20133.079    1487.7031   -21620.782   -732.81353    185.84211    39.372534    39.252083     23.58746 
   32000    239.26301   -285.59185    216156.16   -20224.339    1515.5449   -21739.884   -512.41654    187.78045    39.373407     39.25465    23.591914 
   32200    229.65369   -419.01765    216156.16   -20235.991    1454.6773   -21690.668   -1112.5627    188.69043    39.374662    39.253739    23.587413 
   32400    230.69296   -344.05379    216156.16   -20241.964    1461.2603   -21703.224   -824.49665       190.06    39.377318    39.255381    23.586178 
   32600    242.66947   -625.11521    216156.16   -20151.869    1537.1221   -21688.991   -1978.6074    190.81465    39.375732    39.255379    23.598781 
   32800    240.89115    -476.1539    216156.16   -20155.104    1525.8579   -21680.961   -1372.6666    190.51374    39.376238    39.254477    23.598778 
   33000    242.68879    -459.5917    216156.16   -20136.687    1537.2445   -21673.932   -1292.9848    190.91474    39.376098    39.254104    23.597922 
   33200    234.31814   -353.48901    216156.16   -20166.848     1484.223   -21651.071   -812.57587    191.61155    39.375914    39.256095    23.623798 
   33400    236.72996    -451.4187    216156.16   -20197.705    1499.4999   -21697.205   -1302.6995    192.58301    39.379389    39.258003    23.616624 
   33600    231.25264   -548.94224    216156.16   -20198.819    1464.8054   -21663.624   -1627.1365     192.9223    39.381411    39.259981    23.599843 
   33800    239.03112   -307.92484    216156.16   -20077.704    1514.0761    -21591.78   -623.72108    193.63205     39.38196    39.260631    23.609459 
   34000    232.02864   -477.73709    216156.16   -20210.698    1469.7208   -21680.419   -1372.9296    194.98376    39.385198    39.262322    23.610937 
   34200    236.06588   -387.20872    216156.16   -20169.883    1495.2935   -21665.176   -978.31473    196.39334    39.388044    39.263635    23.616593 
   34400    232.15362   -366.86285    216156.16   -20202.643    1470.5124   -21673.156   -906.52225    198.22786    39.389053    39.263228    23.616521 
   34600    238.59785   -427.85901    216156.16   -20067.483    1511.3316   -21578.815   -1106.9978    198.79973    39.386508    39.264317    23.617791 
   34800    235.31609   -274.30691    216156.16   -20170.553    1490.5442   -21661.097   -509.60126    200.00071    39.386095    39.264712    23.595658 
   35000    232.82367   -568.57354    216156.16   -20179.838    1474.7566   -21654.595    -1745.081     200.9657    39.383897    39.264707     23.59511 
   35200    241.18575   -612.25548    216156.16   -20121.356    1527.7239    -21649.08   -1971.9819     201.9995    39.380884    39.265428    23.590784 
   35400    240.63886   -400.48048    216156.16   -20140.425    1524.2598   -21664.685   -1013.2286    202.46154    39.380306    39.264696    23.586077 
   35600    234.65575   -438.06509    216156.16   -20141.629    1486.3615    -21627.99   -1222.3918    202.98402    39.380889    39.267153     23.60221 
   35800    243.09479    -452.9229    216156.16   -20092.654    1539.8162    -21632.47   -1242.7175    203.65786    39.381821    39.267763    23.623543 
   36000    234.80379   -439.01104    216156.16   -20214.711    1487.2992    -21702.01   -1210.6635    205.08494    39.382414    39.268056    23.619407 
   36200    232.81193   -506.27612    216156.16   -20214.933    1474.6823   -21689.615   -1534.4913     205.4218    39.382585    39.264668    23.623852 
   36400    237.69278   -371.31597    216156.16    -20173.91    1505.5987   -21679.509   -931.18892    206.98669    39.382664     39.26282     23.63372 
   36600    236.57536   -322.21502    216156.16   -20151.009    1498.5207    -21649.53   -732.92105    206.11108     39.38243     39.26233    23.648895 
   36800    229.80678   -460.02053    216156.16   -20188.394     1455.647   -21644.041    -1302.796    207.95194    39.380878    39.261446    23.666058 
   37000      232.583   -381.65581    216156.16   -20180.517    1473.2322   -21653.749   -975.72873    208.59807    39.380181    39.263445    23.660257 
   37200     226.8603   -395.14622    216156.16   -20204.038    1436.9833   -21641.021    -1036.181    208.70974     39.38059    39.263658    23.667405 
   37400    239.62659   -320.29869    216156.16   -20241.983    1517.8478   -21759.831   -692.44254    212.75985    39.380129     39.26477    23.682978 
   37600    222.94124   -372.66261    216156.16   -20263.032    1412.1591   -21675.191   -933.68007      213.914    39.381246    39.263914    23.691832 
   37800    228.95779   -235.49479    216156.16   -20287.141    1450.2693   -21737.411   -347.60192     213.8828    39.381164     39.26418    23.699362 
   38000    233.66723   -328.31644    216156.16   -20218.979       1480.1   -21699.079   -707.90035    214.56743     39.37864    39.266239    23.711075 
   38200    235.35272   -370.65095    216156.16   -20202.461    1490.7762   -21693.237    -917.6296    217.20985    39.380288    39.267378    23.719816 
   38400    238.95974   -425.88532    216156.16   -20153.281    1513.6239   -21666.905   -1167.0863     217.7107    39.378813    39.268026    23.725994 
   38600    230.90821   -292.45042    216156.16   -20188.531    1462.6237   -21651.154   -580.38996    218.03456    39.379579     39.26689    23.707427 
   38800    234.53946    -557.0684    216156.16   -20155.587    1485.6248   -21641.212   -1686.5363    219.10463    39.383945    39.264201    23.674172 
   39000    241.72987   -408.95621    216156.16   -20120.047    1531.1705   -21651.218   -1062.0221    220.02466    39.385034    39.266349     23.70456 
   39200    229.78689   -200.36681    216156.16   -20199.483     1455.521   -21655.004   -203.04726    221.82128     39.38518    39.268176    23.689922 
   39400    235.22906   -565.37556    216156.16   -20223.697    1489.9929    -21713.69   -1722.0405    223.32911    39.385579     39.26845    23.690779 
   39600    239.73902   -389.24411    216156.16   -20168.441      1518.56   -21687.001    -963.5063    224.70404    39.382177    39.268722    23.692162 
   39800    234.64323   -412.34548    216156.16    -20257.11    1486.2822   -21743.392   -1121.7463     226.3726    39.380677    39.268403    23.701276 
   40000    234.63565   -203.45505    216156.16   -20216.639    1486.2341   -21702.874   -149.42678    226.98274    39.379352    39.268418     23.68707 
   40200    236.37141   -430.68694    216156.16   -20232.152    1497.2288   -21729.381   -1189.9928    228.65552    39.380757    39.268681    23.667678 
   40400    229.22148   -474.93338    216156.16   -20296.853    1451.9396   -21748.792   -1363.1631    228.65145    39.379953    39.268162    23.672945 
   40600    232.61094   -305.46861    216156.16   -20185.901    1473.4092    -21659.31   -646.65912    229.00413    39.380964    39.269445    23.681917 
   40800    235.65287   -421.27349    216156.16   -20246.393    1492.6775    -21739.07     -1132.41    230.04304    39.381605     39.26973    23.673225 
   41000    231.85859   -399.38133    216156.16   -20244.275    1468.6437   -21712.919   -1049.0796    229.92136    39.382554    39.269773    23.657461 
   41200    238.06725   -323.38522    216156.16   -20149.075    1507.9707   -21657.045   -730.81735     231.7068    39.380029    39.267328    23.651467 
   41400    227.92774   -414.48975    216156.16   -20167.068    1443.7447   -21610.813   -1123.3454    233.31245    39.381055    39.266099    23.648873 
   41600      239.849   -376.24753    216156.16   -20136.245    1519.2567   -21655.502   -934.61195     233.0183    39.381619    39.266791    23.654491 
   41800    233.42482   -273.53646    216156.16   -20159.843    1478.5645   -21638.408   -469.62015    233.83265    39.384358    39.265997    23.649045 
   42000    228.74294   -344.75859    216156.16   -20193.106    1448.9084   -21642.014   -790.50883    234.64986    39.384593    39.267627     23.63636 
   42200    228.98056   -416.61234    216156.16   -20205.458    1450.4135   -21655.872   -1113.9649    235.60395    39.384176    39.268183    23.647588 
   42400      239.945   -464.21037    216156.16   -20146.836    1519.8647   -21666.701   -1300.8235    236.12957    39.383454    39.267618    23.635083 
   42600    233.14406   -320.90443    216156.16   -20187.519    1476.7861   -21664.305   -709.10044    238.69446    39.383026    39.264913     23.61647 
   42800    239.92746   -502.43608    216156.16   -20117.025    1519.7537   -21636.779    -1505.024     239.9723    39.383367    39.267697    23.602057 
   43000    242.34218   -331.66085    216156.16   -20107.305     1535.049   -21642.354   -739.85985    240.15814    39.383195    39.270586    23.601239 
   43200    232.87593   -258.52732    216156.16   -20138.774    1475.0877   -21613.862   -425.88351    240.50011    39.383188    39.270025    23.610638 
   43400    231.60725   -420.72661    216156.16   -20135.308    1467.0516    -21602.36   -1148.1839    241.36881    39.381807    39.270809    23.623695 
   43600     233.0964   -514.99683    216156.16   -20157.962    1476.4842   -21634.447   -1553.0776     241.8774     39.38011    39.270702    23.592562 
   43800    234.96506   -285.18059    216156.16   -20219.569    1488.3207    -21707.89   -545.64786    242.01944    39.378449    39.269828    23.602291 
   44000    228.72375   -373.57084    216156.16   -20294.915    1448.7868   -21743.702   -938.03727    242.00714    39.379852    39.264604    23.592879 
   44200    231.47828   -301.06706    216156.16   -20228.496    1466.2347   -21694.731    -647.1664     242.0476    39.378661    39.264075    23.575041 
   44400     234.1976   -335.96327    216156.16    -20223.62    1483.4594   -21707.079   -813.08701     242.1438    39.377433    39.263522    23.563726 
   44600    229.92025   -434.82867    216156.16   -20243.156    1456.3657   -21699.522   -1224.6098    243.41488    39.375237     39.26373    23.603335 
   44800    231.89455     -340.218    216156.16   -20238.364    1468.8714   -21707.235   -756.40256    244.46096    39.377519    39.262542     23.61668 
   45000    237.68565   -498.64078    216156.16   -20199.833    1505.5535   -21705.387   -1451.7566    245.83599    39.377511    39.261785    23.605557 
   45200    238.81473   -304.38137    216156.16   -20175.738    1512.7053   -21688.443   -627.40881    247.05959    39.376071     39.26017    23.602515 
   45400    231.78792   -412.91859    216156.16   -20226.459     1468.196   -21694.655     -1126.83    247.96045    39.376056    39.260292    23.586687 
   45600    236.63097   -529.53011    216156.16   -20162.261    1498.8729   -21661.134   -1606.5255    249.21825    39.376764    39.259571    23.571239 
   45800    233.41194   -290.27197    216156.16   -20211.244    1478.4829   -21689.727   -616.68719    250.85162     39.37855    39.260029    23.553239 
   46000    235.58297   -410.27882    216156.16   -20125.518    1492.2347   -21617.753   -1097.1151    251.11852    39.379477    39.257441    23.546266 
   46200    237.92466    -436.1924    216156.16   -20104.329    1507.0675   -21611.396   -1202.8214    252.53213     39.37743    39.254871    23.542279 
   46400    239.67365   -415.45181    216156.16   -20184.263    1518.1459   -21702.409   -1102.9356    255.23461    39.379088    39.255298    23.551975 
   46600    238.71275   -543.83406    216156.16     -20193.3    1512.0594    -21705.36   -1674.2776    255.78209    39.380686    39.253398    23.552402 
   46800    238.48049   -293.11445    216156.16   -20158.774    1510.5882   -21669.362   -596.43107    255.76255     39.38208    39.253855    23.556432 
   47000    239.79798   -438.77909    216156.16    -20146.04    1518.9335   -21664.974   -1201.1893    255.86038    39.384798    39.252592     23.56269 
   47200    232.33131   -331.37767    216156.16   -20244.721    1471.6379   -21716.359    -746.9938    254.99385    39.386182    39.252464     23.58174 
   47400    237.73201   -318.99918    216156.16   -20199.662    1505.8472   -21705.509     -704.983    254.49791    39.386087    39.252581    23.570732 
   47600    236.92351   -264.34861    216156.16   -20194.272     1500.726   -21694.998   -474.01621    254.33695    39.387168    39.254463    23.554513 
   47800     231.2517    -374.4336    216156.16   -20197.031    1464.7995    -21661.83   -909.87896    255.63763    39.386674    39.251786    23.541613 
   48000    234.08382   -423.18141    216156.16   -20185.081    1482.7387    -21667.82   -1202.4962    256.48968    39.386906    39.252999    23.545565 
   48200    231.56066   -410.57162    216156.16   -20187.848    1466.7565   -21654.605   -1065.7186      258.408    39.386177    39.252347    23.545263 
   48400    225.79602   -537.68691    216156.16   -20199.352     1430.242   -21629.593   -1608.0473    258.36258     39.38838    39.249807    23.561651 
   48600    231.14539   -358.36365    216156.16   -20269.054    1464.1261    -21733.18   -919.31178    261.05791    39.389633    39.250814    23.581834 
   48800    235.34731   -469.60806    216156.16   -20228.077     1490.742   -21718.819     -1342.66    261.87816    39.388751    39.251731    23.579402 
   49000    232.74427   -350.62007    216156.16   -20206.421    1474.2537   -21680.674   -847.85471    262.32816     39.39034    39.254062    23.553319 
   49200    242.51073   -459.94314    216156.16   -20143.451    1536.1166   -21679.568   -1316.5565     262.7778    39.392591     39.25534    23.558368 
   49400    233.82258   -409.01595    216156.16   -20189.208     1481.084   -21670.292   -1090.1312    263.52119     39.39278    39.255351     23.53276 
   49600    232.86281   -414.91866    216156.16   -20170.238    1475.0046   -21645.243   -1129.5743    264.44253    39.390802    39.254754    23.518922 
   49800    233.35203   -358.16192    216156.16   -20178.086    1478.1034    -21656.19   -862.02301    265.14375    39.389864    39.254377    23.483275 
   50000    232.66107   -479.22105    216156.16    -20167.32    1473.7267   -21641.046   -1383.8563    267.40087    39.388773    39.254247    23.473791 
   50200     239.6849   -361.06193    216156.16   -20095.357    1518.2172   -21613.574   -865.06897    267.78275    39.389846    39.256232    23.491922 
   50400    227.82576   -453.95608    216156.16   -20133.034    1443.0988   -21576.133   -1290.2543     269.9546    39.391073    39.258704    23.504054 
   50600    243.28978   -239.12597    216156.16   -20076.763    1541.0513   -21617.814   -328.77053    270.46072    39.393222    39.263246    23.523438 
   50800    226.84448   -633.09939    216156.16   -20254.335    1436.8831   -21691.219   -2007.7625    271.13159    39.391794    39.265973    23.526826 
   51000    234.35854   -303.36114    216156.16    -20224.98    1484.4789   -21709.459   -610.85591     270.1913    39.391682    39.267433    23.530494 
   51200    232.39592   -446.09662    216156.16   -20210.075    1472.0472   -21682.123    -1241.672    270.58917    39.391311    39.268596    23.519942 
   51400    233.60527   -322.33534    216156.16   -20178.746    1479.7075   -21658.454   -703.54533     272.3401     39.38874    39.269295    23.513332 
   51600    236.72244   -408.61708    216156.16   -20187.973    1499.4523   -21687.425   -1037.1939    272.95173    39.388473    39.267092    23.504223 
   51800     238.8186   -478.38103    216156.16   -20139.724    1512.7299   -21652.454     -1384.95    274.81578    39.386902    39.268372    23.492283 
   52000    232.15603   -495.11856    216156.16   -20215.386    1470.5277   -21685.914   -1438.6851    274.79545     39.38634    39.268415    23.502081 
   52200    231.83679   -408.48394    216156.16   -20242.771    1468.5055   -21711.276    -1111.645    275.57186    39.386665     39.27015    23.497842 
   52400    230.90747   -482.23193    216156.16   -20289.761     1462.619    -21752.38   -1345.0425    278.65423    39.386362    39.269953     23.49254 
   52600    234.02036   -363.99331    216156.16   -20173.977    1482.3368   -21656.314   -891.02582    278.73134    39.386509    39.269023    23.519764 
   52800    237.84627   -569.72122    216156.16   -20123.597    1506.5709   -21630.168   -1767.6446    280.10463    39.385403    39.268801     23.51355 
   53000    241.68081   -287.35112    216156.16   -20122.428    1530.8597   -21653.288   -581.14679    280.04075    39.385089    39.269267    23.534816 
   53200    229.77566   -445.60246    216156.16   -20219.103    1455.4499   -21674.553   -1242.5327     281.7909    39.386207     39.26889    23.530834 
   53400    230.24444   -490.03515    216156.16   -20216.905    1458.4192   -21675.324    -1399.675    282.93297    39.384593    39.267753    23.537508 
   53600    232.21713   -462.94794    216156.16   -20248.002    1470.9147   -21718.916   -1266.0918    285.97717    39.381944    39.268328    23.548838 
   53800    232.03122   -331.40092    216156.16   -20173.336    1469.7371   -21643.073   -759.68276    287.37209     39.38085    39.267743    23.529818 
   54000    230.32616   -329.63474    216156.16   -20154.024    1458.9369    -21612.96   -687.58912    288.74383    39.380421    39.265776    23.530229 
   54200    237.00711   -394.93887    216156.16   -20092.042    1501.2555   -21593.298   -988.31756    290.62184     39.38023    39.266115    23.519522 
   54400    244.59625   -388.31687    216156.16   -20053.017    1549.3268   -21602.344   -974.68353    293.20668    39.380967    39.264606    23.517939 
   54600    234.90895   -365.44517    216156.16   -20103.061    1487.9653   -21591.026   -828.28255    292.88905    39.381327    39.263373     23.51295 
   54800    233.38784   -429.14321    216156.16   -20104.524    1478.3302   -21582.854   -1152.5603    292.76774    39.381994    39.265063     23.53529 
   55000    237.56707   -462.43989    216156.16   -20109.553    1504.8024   -21614.355   -1276.0407     293.9349    39.384948    39.265003    23.543357 
   55200    225.54437    -427.7377    216156.16   -20270.972     1428.648    -21699.62   -1066.8798    295.51628     39.38524    39.264939    23.554796 
   55400    237.52823    -518.7581    216156.16   -20235.689    1504.5564   -21740.245   -1511.8197     297.3398    39.383507    39.268085    23.565355 
   55600    231.20093   -246.93307    216156.16   -20205.919    1464.4779   -21670.397   -329.86162    295.93092    39.380922    39.269997     23.54615 
   55800    234.55116    -366.4087    216156.16   -20087.841     1485.699    -21573.54   -879.33208    296.18868    39.379262    39.271812    23.552407 
   56000     237.8861   -412.84811    216156.16   -20141.614    1506.8232   -21648.437   -1080.6019    295.98957    39.379032     39.27014    23.553405 
   56200     235.9276   -335.17283    216156.16   -20160.494    1494.4177   -21654.912   -776.82284     296.9092    39.379122    39.268649    23.563698 
   56400    231.80154   -458.44817    216156.16   -20272.333    1468.2822   -21740.616   -1292.9382    298.84492    39.379897    39.268591    23.553437 
   56600    229.27263   -297.04185    216156.16    -20336.96    1452.2636   -21789.224   -576.51627    299.75157    39.378482    39.271725    23.545396 
   56800    234.18576   -265.39873    216156.16   -20245.728    1483.3845   -21729.113   -458.82736    301.15375    39.378031    39.272793    23.548363 
   57000    229.24998   -411.42389    216156.16    -20299.37    1452.1201    -21751.49   -1057.5402    302.94032    39.377572     39.27262    23.527202 
   57200    235.22311   -455.65853    216156.16   -20199.039    1489.9553   -21688.994   -1287.3633    304.37476    39.376458    39.271902    23.538642 
   57400    231.75311   -284.93594    216156.16   -20246.818    1467.9755   -21714.794   -566.33006    305.15014    39.377053    39.270341     23.54531 
   57600    228.84892    -475.3065    216156.16    -20282.41    1449.5797   -21731.989   -1329.5673    307.54102    39.377622    39.271624    23.548974 
   57800    233.06433   -342.18144    216156.16   -20201.122    1476.2811   -21677.403   -773.14614    308.12785    39.379275    39.272752    23.535268 
   58000    229.39551   -390.64075    216156.16   -20209.575     1453.042   -21662.617   -997.64589    309.44086    39.377364    39.271699    23.540712 
   58200    238.50011   -381.42513    216156.16   -20171.957    1510.7125   -21682.669   -959.90289    311.69688    39.379456    39.272725    23.528546 
   58400    237.26278   -365.46252    216156.16   -20200.582     1502.875   -21703.457   -935.74366    310.68099    39.380081    39.271372    23.538167 
   58600    233.10628    -367.7499    216156.16   -20243.784    1476.5468    -21720.33     -880.867     310.9171    39.378546    39.272091    23.532741 
   58800     233.0816   -376.44366    216156.16   -20241.917    1476.3905   -21718.307   -967.50281    310.99487    39.375005    39.275321    23.541652 
   59000    237.90042   -271.88929    216156.16    -20190.83    1506.9139   -21697.744   -487.68088    308.84175    39.376176    39.274611     23.53836 
   59200    232.04007   -400.08842    216156.16   -20255.254    1469.7932   -21725.047   -1002.3557    309.05625    39.374487    39.274887    23.513277 
   59400    234.56435    -426.6633    216156.16   -20242.378    1485.7825    -21728.16   -1153.8174    310.06188    39.374335    39.277764    23.498566 
   59600    227.72269   -389.74973    216156.16   -20278.194    1442.4459    -21720.64   -980.66456    311.47111    39.375185    39.277713    23.491565 
   59800    234.81272     -365.437    216156.16   -20213.814    1487.3557   -21701.169   -855.07439    314.21573    39.376943    39.279698    23.489696 
   60000    231.72844   -526.08264    216156.16   -20201.013    1467.8192   -21668.833   -1571.7154    315.90297    39.377161    39.281788    23.505861 
   60200     231.2233   -490.67295    216156.16   -20222.294    1464.6195   -21686.914   -1457.7726    315.44708    39.378467    39.281412    23.496763 
   60400    237.72798   -442.72292    216156.16   -20227.863    1505.8216   -21733.684   -1192.2465    315.63926    39.379289    39.280087    23.496208 
   60600    232.58122   -370.66173    216156.16   -20216.263    1473.2209   -21689.483   -917.80043    316.11836    39.378434    39.279859    23.498473 
   60800    233.08947   -328.24166    216156.16    -20147.11    1476.4403    -21623.55   -734.82895    318.55129    39.379818    39.280403    23.482544 
   61000    235.87976   -432.94885    216156.16   -20174.755    1494.1146    -21668.87   -1186.7028    318.64655    39.378063    39.281341    23.496251 
   61200     242.9727   -521.69992    216156.16   -20108.835    1539.0429   -21647.878    -1589.563    318.63833    39.378312    39.280195    23.522582 
   61400    231.42651   -452.64026    216156.16   -20162.251    1465.9068   -21628.157   -1319.5356    320.12522     39.37761    39.281309    23.518516 
   61600    231.26649    -348.4969    216156.16   -20187.737    1464.8931    -21652.63   -794.27752    321.24554    39.376877    39.281691    23.522945 
   61800    238.70623   -359.13987    216156.16   -20246.662    1512.0181    -21758.68   -846.26789     321.9776    39.378556    39.281222      23.5235 
   62000    235.91636   -256.60508    216156.16   -20187.618    1494.3464   -21681.965   -424.80521    321.77451    39.379558    39.281711    23.545791 
   62200    238.04566   -378.01833    216156.16   -20162.469    1507.8339   -21670.303   -971.39071    324.85028    39.378508    39.279286    23.575935 
   62400    234.77564   -377.79982    216156.16   -20155.249    1487.1209    -21642.37   -956.89932    325.88003    39.377715    39.278936    23.610572 
   62600    239.25279   -307.90775    216156.16   -20219.919    1515.4801   -21735.399   -649.95839    327.73905    39.377427    39.278573     23.60431 
   62800    235.16948   -283.51045    216156.16   -20333.858    1489.6155   -21823.474   -541.37165    329.89253    39.379506    39.277929    23.593632 
   63000    233.55424   -438.83707    216156.16   -20209.718    1479.3843   -21689.102   -1200.2307     330.1167     39.37976    39.278473    23.588561 
   63200    233.26303   -472.70687    216156.16   -20223.847    1477.5397   -21701.387   -1334.2122    330.48795     39.37811    39.280534    23.595687 
   63400    228.08922   -279.42796    216156.16   -20284.087    1444.7676   -21728.855   -525.26971    330.24194    39.377666    39.279327    23.569566 
   63600    234.82045   -402.61715    216156.16   -20271.754    1487.4047   -21759.159    -1009.168    330.23432    39.374803    39.279372    23.566192 
   63800    232.94713   -374.20205    216156.16   -20292.632    1475.5387   -21768.171   -973.86998    330.22645    39.374252    39.279726    23.560761 
   64000    230.02301   -348.20444    216156.16   -20178.517    1457.0166   -21635.534   -865.96844    330.59545     39.37317    39.278956    23.552076 
   64200    229.31774   -550.67664    216156.16   -20169.396    1452.5493   -21621.945   -1662.1987    331.45034     39.37369    39.278252    23.534495 
   64400    236.35731   -320.43253    216156.16   -20170.831    1497.1395    -21667.97   -707.05596    332.86772    39.372896    39.275131    23.512202 
   64600    231.91716   -370.87838    216156.16   -20244.654    1469.0146   -21713.669   -906.72256    332.14982    39.372539    39.274242    23.491489 
   64800    230.14768   -433.42166    216156.16   -20221.554    1457.8064    -21679.36   -1200.9911    333.99639    39.374108    39.274522    23.483464 
   65000     237.1591   -371.12547    216156.16   -20167.037    1502.2182   -21669.255   -896.88406    336.24333    39.373725    39.276728    23.482553 
   65200    231.19558   -281.23562    216156.16    -20197.09     1464.444   -21661.534    -526.5401    337.46051    39.374823    39.276565    23.495071 
   65400     240.6573   -436.92484    216156.16   -20178.856    1524.3766   -21703.233   -1201.6337    337.59527    39.377691    39.277789    23.501129 
   65600    238.89622   -395.43751    216156.16   -20067.595    1513.2215   -21580.817   -1030.5247    337.04262    39.378048    39.278512    23.486551 
   65800    235.16279   -294.71321    216156.16   -20104.689    1489.5732   -21594.262   -593.27535    337.31651    39.378674    39.279538    23.467622 
   66000     232.3195   -316.61448    216156.16   -20120.331    1471.5631   -21591.894   -720.90606    337.82535    39.380358     39.27861    23.466416 
   66200    229.34861   -318.19736    216156.16   -20185.117    1452.7448   -21637.862   -659.86398    339.39557    39.380053    39.276788    23.476288 
   66400    235.17154    -518.4552    216156.16    -20194.13    1489.6286   -21683.759   -1584.2878    341.64911    39.381628    39.276751    23.458117 
   66600    232.43402   -453.63712    216156.16   -20225.133    1472.2885   -21697.422   -1276.1542    344.87815    39.379096    39.276999      23.4614 
   66800     236.3148   -307.67404    216156.16   -20234.986    1496.8703   -21731.857   -619.33075    345.29113    39.379467    39.274649    23.458555 
   67000    229.12909   -404.05761    216156.16   -20281.116    1451.3544    -21732.47   -1020.3037    346.20227    39.380681    39.274298    23.466195 
   67200    235.22414   -459.38916    216156.16   -20208.342    1489.9618   -21698.304   -1299.4617     347.4068    39.377916    39.273742    23.465469 
   67400    231.21803   -357.91853    216156.16   -20181.066    1464.5862   -21645.652    -841.1857    348.76846    39.379417    39.275303    23.499422 
   67600    235.69447    -354.4248    216156.16   -20140.879    1492.9409    -21633.82   -859.41909    349.27459    39.380108    39.276758    23.506575 
   67800    233.22741   -332.45724    216156.16   -20195.386     1477.314     -21672.7   -743.92324    348.65985    39.378556    39.279796    23.506267 
   68000    233.49849   -265.22546    216156.16    -20224.17    1479.0311   -21703.201   -505.11041    347.83389     39.37886    39.280011    23.499671 
   68200    234.08321   -424.98108    216156.16   -20208.465    1482.7349     -21691.2   -1153.3749    347.42492     39.37768     39.28118    23.509129 
   68400    236.72605    -472.8503    216156.16   -20168.379    1499.4752   -21667.854   -1373.3907    348.90489    39.375638    39.279574     23.51905 
   68600    236.20528    -331.0444    216156.16    -20192.25    1496.1765   -21688.426   -746.62021    347.92465    39.375691    39.278814     23.54176 
   68800    236.40674   -395.81406    216156.16   -20178.478    1497.4526   -21675.931   -1015.3384    349.12765    39.376838    39.279543    23.561302 
   69000    234.39066   -464.80729    216156.16   -20183.103    1484.6823   -21667.785   -1353.6224    349.18167    39.377185    39.278369    23.561105 
   69200    229.32965   -372.50729    216156.16   -20236.428    1452.6248   -21689.053   -918.63323    348.85634    39.373997    39.278906    23.546677 
   69400    227.77988   -408.51791    216156.16   -20277.575    1442.8082   -21720.383   -1067.3807    350.22606    39.372368    39.280887    23.519223 
   69600    248.19342    -394.7462    216156.16   -20117.422    1572.1121   -21689.534   -1027.2182    350.46854    39.371998    39.283422    23.505544 
   69800    233.68302   -273.73829    216156.16   -20214.811    1480.1999   -21695.011   -518.49784    350.63399    39.372947    39.285489    23.508381 
   70000    236.22287   -386.42551    216156.16   -20196.571    1496.2879   -21692.859   -970.19641    352.77538    39.373605    39.285386    23.506374 
   70200     235.6086   -370.96971    216156.16    -20184.61     1492.397   -21677.007   -913.01718    353.93944      39.3721    39.285866    23.520571 
   70400    236.61489    -426.4292    216156.16    -20126.67    1498.7711   -21625.441   -1116.6279    353.97816    39.374264    39.286578    23.524428 
   70600    234.67395   -405.62781    216156.16   -20207.633    1486.4768    -21694.11   -1074.5564    354.63599    39.376235      39.2881     23.52841 
   70800    236.09933   -346.51511    216156.16   -20235.766    1495.5054   -21731.272   -859.02664    354.32673    39.377268    39.288191    23.527601 
   71000    234.02204   -411.83447    216156.16   -20257.949    1482.3474   -21740.297   -1034.4828    356.51378    39.380142    39.288558    23.505097 
   71200    234.62083   -483.57297    216156.16   -20228.678    1486.1403   -21714.819   -1390.6643    356.54255    39.380168    39.288809    23.538771 
   71400    234.56027   -189.56044    216156.16   -20274.941    1485.7567   -21760.698   -130.90347    356.45292    39.380534    39.289206    23.536253 
   71600    233.19865    -293.6968    216156.16   -20233.491    1477.1318   -21710.622    -564.5726    357.45076    39.381232     39.29012    23.534066 
   71800    232.39139   -580.39653    216156.16   -20341.157    1472.0185   -21813.175   -1794.2135    357.87203    39.379878    39.291463    23.545508 
   72000     230.4092   -403.46057    216156.16   -20313.718    1459.4629   -21773.181   -1027.3693    359.05653    39.378581    39.293634    23.547832 
   72200    238.89816   -384.56466    216156.16   -20148.252    1513.2338   -21661.486   -984.05775    359.10347    39.380354    39.295567    23.575776 
   72400    235.82294   -440.24943    216156.16   -20228.909    1493.7547   -21722.664   -1143.0138    359.99722    39.380251    39.296559     23.57016 
   72600    237.64794   -265.06653    216156.16   -20215.158    1505.3146   -21720.473   -452.51326    360.94582    39.380264    39.296544      23.5827 
   72800    231.68436   -277.26384    216156.16   -20232.325      1467.54   -21699.865   -510.63193    361.11473    39.379401     39.29667    23.591403 
   73000    234.97474   -497.93369    216156.16   -20256.091     1488.382   -21744.473   -1481.8814     361.4986    39.377883     39.29749    23.580424 
   73200    242.77278   -351.98127    216156.16   -20170.679    1537.7765   -21708.456   -864.33008    360.93321    39.376828    39.299516     23.58346 
   73400    237.17856   -293.14902    216156.16   -20163.143    1502.3415   -21665.484   -589.32641    361.64564     39.37647    39.300574    23.594384 
   73600    236.61672    -439.5442    216156.16   -20182.939    1498.7827   -21681.722   -1205.2803    361.61396    39.376392    39.303492    23.601777 
   73800    227.21528   -346.02888    216156.16   -20289.315    1439.2319   -21728.546   -787.97823    362.44835     39.37998    39.306027    23.619721 
   74000    231.30568   -339.82697    216156.16   -20276.445    1465.1414   -21741.587   -784.28349    362.65762    39.382076    39.304486     23.64004 
   74200    239.21677    -491.9528    216156.16   -20183.014     1515.252   -21698.266   -1400.5445    364.57225    39.379964    39.304117    23.626379 
   74400    235.43143   -454.10995    216156.16   -20195.064    1491.2748   -21686.339   -1231.5737     364.6361    39.381965      39.3055     23.61019 
   74600    233.58063   -389.08559    216156.16   -20273.605    1479.5514   -21753.156   -977.78946    365.87317    39.383828    39.309863    23.622771 
   74800    237.60611   -578.40678    216156.16   -20277.665    1505.0497   -21782.715   -1746.3639    366.06851    39.382864     39.31052    23.616878 
   75000    234.66759   -255.18264    216156.16   -20298.865    1486.4364   -21785.301   -430.62525    368.04999    39.379563    39.312068    23.622289 
   75200    240.93789     -389.226    216156.16   -20225.717     1526.154   -21751.871   -996.38218    367.44857    39.379765    39.311262    23.602166 
   75400    229.64115   -448.65724    216156.16   -20294.682    1454.5979    -21749.28    -1258.465    368.68182    39.380219    39.311019    23.602362 
   75600    236.62237   -390.10426    216156.16   -20247.383    1498.8185   -21746.202   -1001.6086    370.40476    39.378054    39.313007    23.604629 
   75800    231.79786   -429.81544    216156.16   -20181.871     1468.259    -21650.13   -1152.3829    371.03337    39.380012    39.312657    23.617616 
   76000    236.39679   -419.20294    216156.16   -20178.051    1497.3896    -21675.44   -1146.3651    369.76224    39.382771     39.31116    23.613661 
   76200    233.04779   -338.75423    216156.16   -20293.934    1476.1763    -21770.11   -738.08416     370.9796    39.383058    39.312861    23.617694 
   76400    230.70503   -562.14499    216156.16   -20282.023    1461.3367    -21743.36   -1649.2062    372.80984    39.386719    39.312365    23.605812 
   76600    236.99338   -464.73316    216156.16   -20294.527    1501.1686   -21795.696   -1272.7138    373.22976    39.385789    39.310374    23.615143 
   76800    231.97581   -353.89947    216156.16   -20311.094    1469.3862   -21780.481   -822.67584      374.351    39.383464    39.308868     23.60852 
   77000    234.36895     -358.945    216156.16    -20278.67    1484.5448   -21763.215   -853.68949    373.17056    39.383185    39.306651    23.604834 
   77200    235.90377    -502.5418    216156.16   -20262.691    1494.2667   -21756.958    -1462.421    375.03412    39.384034    39.305761    23.600022 
   77400    237.22735   -403.39102    216156.16   -20248.965    1502.6505   -21751.616   -1091.7514    376.01674    39.385814    39.306715    23.608833 
   77600     230.9117   -332.25635    216156.16   -20277.479    1462.6458   -21740.125   -758.81444      375.232    39.384999    39.306277     23.62857 
   77800    240.81855   -306.17998    216156.16   -20260.298     1525.398   -21785.696   -642.21002    374.59413    39.384258    39.306278    23.618539 
   78000    237.74485   -428.12688    216156.16   -20318.038    1505.9285   -21823.966   -1170.9063    374.20097    39.381062    39.305811    23.629961 
   78200    234.47466   -484.26405    216156.16   -20251.491    1485.2144   -21736.706   -1366.3196    374.17941    39.379955    39.304932    23.628579 
   78400      232.452   -486.71109    216156.16   -20247.891    1472.4024   -21720.293   -1372.2583    375.60616    39.377998    39.304143    23.633743 
   78600    235.73116    -377.1351    216156.16   -20241.724    1493.1733   -21734.897   -929.51486    375.62546    39.380141    39.304164    23.604815 
   78800     234.8318   -381.20853    216156.16   -20251.252    1487.4766   -21738.729   -960.96326    375.98239    39.381148    39.303688    23.598498 
   79000    238.62025   -335.93337    216156.16   -20220.402    1511.4735   -21731.875    -769.6356    377.39177    39.382628    39.306357    23.591132 
   79200    233.96057    -426.8829    216156.16   -20168.118     1481.958   -21650.076   -1155.5793    379.80509    39.384463    39.303411    23.592606 
   79400    240.97326   -421.29241    216156.16   -20149.045     1526.378   -21675.423   -1165.0884    379.75673    39.383716    39.302667    23.604371 
   79600      231.983    -433.6078    216156.16   -20297.899    1469.4317    -21767.33   -1193.3583     379.3609    39.384493    39.303313    23.584436 
   79800    234.23531   -431.34467    216156.16   -20269.137    1483.6983   -21752.835   -1150.5781    381.21791    39.383544     39.30389     23.59338 
   80000    231.36809   -537.27704    216156.16   -20279.409    1465.5367   -21744.946   -1590.4572    380.86486      39.3862    39.303753    23.579658 
   80200    238.26059   -336.18353    216156.16   -20285.709    1509.1953   -21794.905   -785.77166    379.95699    39.384797    39.301706    23.579748 
   80400    228.24823   -230.16398    216156.16   -20259.864    1445.7748   -21705.638   -302.58745    379.44476     39.38426    39.302338    23.561256 
   80600    231.72601   -308.15293    216156.16   -20239.599    1467.8038   -21707.403   -616.88252    381.11861    39.384022     39.30186    23.587833 
   80800    233.83507   -397.88557    216156.16   -20234.338    1481.1631   -21715.501   -1041.7466    381.76718    39.382989     39.30169    23.618536 
   81000    230.60949   -361.11582    216156.16   -20218.417    1460.7315   -21679.148   -892.50416     381.7746    39.383235    39.302553    23.637393 
   81200    233.79377   -550.06596    216156.16   -20210.593    1480.9015   -21691.494   -1701.0787    383.41243    39.381156    39.303219    23.638823 
   81400    236.50013   -366.25269    216156.16   -20188.634    1498.0442   -21686.678   -865.02772    384.52737    39.379951    39.302635    23.625131 
   81600    232.86869   -271.57387    216156.16   -20234.658    1475.0418   -21709.699   -540.21065     385.1955    39.377668    39.301541    23.621071 
   81800    228.80018   -463.65736    216156.16   -20272.035     1449.271   -21721.306   -1296.6616    385.96139    39.374862    39.301172    23.623702 
   82000    234.64506   -459.02509    216156.16   -20197.387    1486.2938   -21683.681   -1294.7148    387.55847    39.375295    39.301863    23.623333 
   82200    237.19505   -387.58254    216156.16   -20165.964    1502.4459    -21668.41   -1001.2614    387.06917    39.375916    39.300468     23.61285 
   82400    233.77049   -357.22042    216156.16    -20199.75     1480.754   -21680.504   -866.01814     387.8099    39.377812    39.299042    23.603297 
   82600    241.42654   -299.41843    216156.16   -20136.113    1529.2491   -21665.362   -562.55407    389.59801    39.377883    39.296971    23.594621 
   82800    233.38672   -408.07248    216156.16   -20205.841    1478.3231   -21684.164   -1078.9013    390.44064    39.380508    39.296623    23.620991 
   83000    242.83176   -245.44165    216156.16   -20152.052    1538.1501   -21690.202   -365.92822    389.89574     39.38113    39.294971     23.63347 
   83200    238.17549   -438.75675    216156.16   -20180.662    1508.6563   -21689.319   -1191.8058    388.63763    39.379352    39.296665    23.632605 
   83400    233.03936   -440.78532    216156.16   -20200.234    1476.1229   -21676.357   -1262.7896    391.27283    39.376821    39.298725    23.628263 
   83600     233.1076   -457.78435    216156.16   -20238.434    1476.5551   -21714.989   -1249.4521    389.46702    39.374815    39.301126    23.611009 
   83800     231.3169   -388.80258    216156.16   -20215.159    1465.2124   -21680.371   -981.60371    390.02784    39.375844    39.302957    23.633055 
   84000     230.7882   -351.78566    216156.16   -20217.714    1461.8636   -21679.578   -802.48164    390.07753    39.378788    39.302884    23.630382 
   84200    237.67027   -465.79602    216156.16   -20190.923    1505.4561   -21696.379   -1340.1574    390.89586    39.377571    39.304721    23.652367 
   84400    232.08678   -377.24831    216156.16   -20206.264     1470.089   -21676.353   -1015.5017    391.51886     39.37888    39.303478    23.660225 
   84600    241.79161   -410.15569    216156.16    -20146.65    1531.5616   -21678.211   -1056.2288    391.18637    39.379112     39.30077    23.679224 
   84800    234.88367   -282.48731    216156.16   -20187.074    1487.8052   -21674.879   -540.20472     392.9933    39.379605      39.3009    23.693257 
   85000     235.6962   -399.22754    216156.16   -20140.453    1492.9519   -21633.405   -1065.1692    393.64394    39.381281    39.299418    23.662792 
   85200    232.21008   -479.62779    216156.16   -20197.326      1470.87   -21668.196   -1377.0927    394.89072    39.384372    39.297282    23.650018 
   85400    233.55969   -349.13333    216156.16   -20225.788    1479.4188   -21705.207   -778.03177    395.00534    39.383981    39.297666    23.624585 
   85600    229.03047   -306.17881    216156.16   -20226.162    1450.7297   -21676.891   -627.21002     395.2251    39.384272    39.296899    23.633594 
   85800    242.15692   -367.45041    216156.16   -20157.447    1533.8756   -21691.323   -839.81443    396.86221    39.383261    39.298644    23.661952 
   86000    233.50513   -283.79409    216156.16   -20199.948    1479.0731   -21679.021   -560.05527    398.76114    39.385257    39.298756    23.676094 
   86200      237.115   -333.52374    216156.16   -20184.319    1501.9389   -21686.258   -761.71721    398.55649    39.384179    39.299932    23.686383 
   86400    231.30292   -244.66006    216156.16   -20201.672    1465.1239   -21666.796   -356.31233      398.437    39.384135    39.299094     23.67662 
   86600    228.67449   -287.24679    216156.16   -20140.594    1448.4748   -21589.069   -595.11561    400.47907    39.384001    39.297637    23.667008 
   86800    229.94928   -422.57439    216156.16   -20207.843    1456.5496   -21664.392   -1172.1078    400.66322    39.381017    39.296611    23.660928 
   87000    238.23873    -297.3629    216156.16   -20170.758    1509.0569   -21679.815   -630.90115    400.03446    39.379767     39.29368    23.668689 
   87200    229.63637   -458.92634    216156.16    -20163.36    1454.5676   -21617.928     -1308.36    401.20057    39.381464    39.291949    23.664793 
   87400    229.61858   -595.08857    216156.16   -20232.054    1454.4549   -21686.509   -1877.3637    402.69993    39.383223    39.291526    23.674999 
   87600    227.98421   -499.65378    216156.16   -20103.092    1444.1025   -21547.195   -1500.0423    403.05445    39.383231    39.292139    23.659999 
   87800    235.70684   -451.00881    216156.16   -20135.607    1493.0193   -21628.626   -1245.5554    403.47707    39.384375     39.29239    23.662502 
   88000    236.62701   -411.01718    216156.16   -20127.396    1498.8479   -21626.244   -1128.0096    404.19012     39.38265    39.293304    23.674112 
   88200    236.31425    -498.3318    216156.16   -20177.185    1496.8668   -21674.051   -1451.6307    406.84977    39.383307    39.291317    23.674187 
   88400    238.07731   -381.01061    216156.16   -20106.112    1508.0344   -21614.146   -977.58745    405.92452    39.379523    39.290668    23.664252 
   88600    237.28279   -302.92649    216156.16   -20152.189    1503.0017   -21655.191   -642.57313    405.48607    39.378555    39.291789    23.679919 
   88800    233.61376   -385.19551    216156.16   -20175.388    1479.7613   -21655.149    -999.6478    403.55831     39.37799     39.29195    23.689186 
   89000    240.29238   -431.94734    216156.16   -20176.488    1522.0651   -21698.553   -1216.5636    405.19853     39.37947    39.291765    23.702556 
   89200    235.20237   -333.90867    216156.16   -20150.361    1489.8239   -21640.184   -778.59597    404.23466     39.37983    39.292096    23.731486 
   89400    231.25555   -453.65709    216156.16   -20141.504    1464.8239   -21606.328   -1326.0217    405.45999    39.378821    39.294437    23.733147 
   89600    228.99714   -434.17808    216156.16   -20242.888    1450.5186   -21693.407    -1169.474    408.62128    39.380028    39.294746    23.727454 
   89800    232.57808   -448.73183    216156.16   -20119.033     1473.201   -21592.234   -1253.0881    409.99687    39.381496    39.294812    23.741624 
   90000    232.81564   -485.94291    216156.16   -20165.266    1474.7058   -21639.972   -1392.1868    409.23358    39.380201    39.294143    23.731992 
   90200    231.76108    -294.5452    216156.16   -20217.343     1468.026   -21685.369   -625.67754    410.82144    39.379653    39.294723    23.732821 
   90400    236.43754   -518.89956    216156.16   -20185.829    1497.6477   -21683.477   -1599.7124    411.71071    39.381194     39.29367    23.713166 
   90600    239.56388   -290.05333    216156.16   -20218.579    1517.4506    -21736.03   -601.96812    410.64937     39.38044    39.293796    23.701563 
   90800     238.1134   -439.80629    216156.16   -20194.797     1508.263    -21703.06   -1219.7081    411.67671    39.380286    39.296014    23.673504 
   91000    230.23715   -401.15322    216156.16   -20239.654    1458.3731   -21698.027   -999.07854     412.0581    39.380702    39.295195     23.65679 
   91200    227.94119   -379.27701    216156.16   -20287.984      1443.83   -21731.814   -912.96867    410.99778    39.379141    39.294771    23.646666 
   91400    235.27308   -466.61102    216156.16   -20229.277    1490.2717   -21719.549   -1344.0249    412.52137    39.375976    39.294676    23.653132 
   91600    236.29412   -524.02905    216156.16     -20167.2    1496.7393    -21663.94   -1573.7628    412.01447    39.375807    39.295592    23.651758 
   91800    240.54183   -184.31722    216156.16   -20182.571    1523.6452   -21706.216   -152.93816    413.57226     39.37609    39.296002    23.675091 
   92000    235.94764   -563.56129    216156.16   -20168.406    1494.5446   -21662.951   -1696.2441     415.1709    39.376388    39.296719    23.680033 
   92200     231.1192    -315.9257    216156.16   -20184.349    1463.9602    -21648.31   -708.36041      415.825    39.376171    39.295066    23.690819 
   92400    238.92849   -518.92765    216156.16   -20169.822     1513.426   -21683.248   -1544.6415     415.7163    39.376498    39.293135    23.711004 
   92600    234.26884   -410.30325    216156.16   -20106.643    1483.9107   -21590.554   -1098.3211    417.14219    39.377161     39.29413    23.752956 
   92800    233.01826   -239.59276    216156.16   -20196.122    1475.9893   -21672.112   -355.18228    416.92496    39.377548    39.290621    23.762955 
   93000    232.00426   -308.73238    216156.16   -20209.217    1469.5664   -21678.784   -675.65668    417.91677    39.381112    39.289345    23.774743 
   93200    234.13135    -347.8883    216156.16   -20203.959    1483.0398   -21686.999   -876.40946    418.15238    39.381531     39.29006    23.745175 
   93400    222.29219   -435.26386    216156.16   -20261.656    1408.0479   -21669.704   -1150.4156    417.88641    39.378848    39.289857     23.73971 
   93600    238.34698   -163.19856    216156.16   -20246.728    1509.7425    -21756.47   -50.084206    416.77883    39.375894    39.288407     23.72826 
   93800    223.05949   -306.45986    216156.16   -20281.196    1412.9082   -21694.104   -674.05888    418.36259    39.376029    39.286816    23.729557 
   94000    231.73691   -272.06948    216156.16   -20224.359    1467.8729   -21692.232    -551.6874     420.2888    39.375432    39.286739    23.738956 
   94200    234.03826   -318.88617    216156.16   -20132.734    1482.4502   -21615.184   -685.31801    422.63539    39.376714    39.285755      23.7123 
   94400    230.47872   -464.36312    216156.16   -20195.308    1459.9032   -21655.211   -1312.6845    423.41893    39.375235     39.28497    23.725255 
   94600    234.65486   -337.08523    216156.16   -20163.546    1486.3558   -21649.902    -829.5594     423.5191    39.377473    39.285604    23.743174 
   94800    231.92741   -276.16468    216156.16   -20143.006    1469.0795   -21612.086   -584.35563     427.0218     39.37713    39.283707    23.758192 
   95000    231.46941   -382.17748    216156.16   -20170.197    1466.1785   -21636.375   -968.98263    428.19303    39.376906    39.284132    23.754464 
   95200    233.54716   -315.58347    216156.16    -20144.21    1479.3394    -21623.55    -692.7246    429.80107    39.376122    39.284525    23.755126 
   95400    237.12034   -500.26807    216156.16   -20100.076    1501.9727   -21602.048   -1506.1303    430.11708    39.377116    39.286648    23.767069 
   95600    237.00488   -478.78436    216156.16   -20099.081    1501.2414   -21600.323   -1354.9471     431.8168    39.376912    39.288567    23.766667 
   95800    237.29857   -352.12589    216156.16   -20101.632    1503.1017   -21604.733   -858.47649     432.0607    39.377443     39.28987    23.747506 
   96000    236.68111   -293.00642    216156.16   -20119.475    1499.1905   -21618.665   -610.03625    433.23048    39.376825     39.29168    23.753649 
   96200    235.55196   -262.93225    216156.16   -20088.622    1492.0383    -21580.66   -459.98074     432.7853    39.374165    39.290831    23.759806 
   96400     233.9456   -322.74621    216156.16   -20167.332    1481.8632   -21649.195   -710.03614    432.53397    39.373604    39.291145    23.749369 
   96600    232.91113   -419.87037    216156.16   -20185.314    1475.3106   -21660.625   -1154.2676    434.30177    39.373758    39.291369    23.746843 
   96800     236.9519   -422.89477    216156.16   -20152.349    1500.9058   -21653.255   -1131.0453    433.30123    39.375404    39.291241    23.753656 
   97000     230.7553   -371.66082    216156.16   -20211.505    1461.6551    -21673.16   -905.53256    434.93674    39.378405    39.291304    23.766209 
   97200    235.47436   -302.03778    216156.16   -20214.265    1491.5467   -21705.812   -652.49987    436.39207    39.380406    39.290726    23.769529 
   97400    237.37805   -427.54661    216156.16   -20173.139    1503.6051   -21676.744   -1216.1718    436.46024     39.37909    39.291283    23.788991 
   97600    234.23718   -553.14615    216156.16   -20120.648    1483.7101   -21604.358   -1699.3155    437.75345    39.376434     39.29172    23.785889 
   97800     232.2223   -428.99799    216156.16   -20131.128    1470.9475   -21602.075   -1177.7308    438.50766    39.375769    39.292229    23.773947 
   98000    235.08314   -431.76856    216156.16    -20181.82    1489.0687   -21670.889    -1186.706    438.30194    39.375216     39.29373    23.773558 
   98200    236.10448   -403.26006    216156.16   -20173.217    1495.5381   -21668.755   -1070.3771    438.12925    39.375599    39.294503      23.7819 
   98400    232.58673   -403.04816    216156.16   -20137.176    1473.2558   -21610.432   -1062.3867     438.4307    39.375621    39.294347    23.786977 
   98600    233.97916   -403.71109    216156.16    -20152.93    1482.0758   -21635.006   -1073.0925     437.9559    39.376554    39.295787    23.780422 
   98800    237.95625   -296.67076    216156.16   -20132.209    1507.2675   -21639.476   -611.12578    439.02432    39.377196    39.296736    23.803785 
   99000    234.48405   -344.16097    216156.16   -20159.772    1485.2739   -21645.046   -852.75927    438.92599    39.376752    39.297095     23.79142 
   99200    233.65921   -461.73848    216156.16   -20144.206    1480.0491   -21624.255   -1340.4564     440.3227    39.375996    39.297352    23.794268 
   99400    240.34496   -383.59579    216156.16   -20120.922    1522.3982    -21643.32   -1012.5371     441.6182    39.377835    39.299747    23.799805 
   99600    236.43555   -568.30533    216156.16   -20116.278    1497.6351   -21613.913   -1751.4078    442.85438    39.378095    39.301713    23.836169 
   99800    231.32917    -300.6815    216156.16   -20141.833    1465.2902   -21607.124   -629.68636     443.0971    39.379368    39.302566     23.79185 
  100000      238.356   -590.69492    216156.16   -20128.709    1509.7996   -21638.508   -1887.8774    443.98033    39.379286    39.302722    23.790454 
  100200    228.56225   -418.49708    216156.16   -20192.174    1447.7639   -21639.938   -1121.9622    445.58568    39.380248    39.302332    23.790785 
  100400    239.66758   -281.01176    216156.16   -20116.381    1518.1075   -21634.489   -503.23536     445.7427    39.378968    39.303487     23.80933 
  100600    234.17596   -274.37861    216156.16   -20112.307    1483.3223   -21595.629   -553.82196    447.74437    39.379288    39.305185    23.831818 
  100800    232.53508   -343.43574    216156.16   -20171.584    1472.9287   -21644.513   -831.92101    448.95734     39.37759    39.304123    23.838429 
[...]
 3975800    222.12269   -316.26459    216156.16   -22028.505    1406.9743   -23435.479    -643.7953    5275.5523    39.248342    39.299675    23.872881 
 3976000    218.01577   -307.85233    216156.16   -22057.698    1380.9601   -23438.659   -651.10757    5276.0125    39.246105    39.298095     23.86683 
 3976200    227.13445   -296.18931    216156.16   -22065.139    1438.7199   -23503.859    -565.0233    5275.4853    39.244926    39.298428    23.863606 
 3976400    227.26276   -212.58264    216156.16   -22070.407    1439.5326    -23509.94   -211.30075    5277.0742    39.243746    39.298816    23.873141 
 3976600    218.26135   -360.28748    216156.16   -22065.105    1382.5157    -23447.62    -838.6472    5278.1603    39.243205    39.298663    23.868592 
 3976800      227.597   -419.84717    216156.16   -22015.544    1441.6498   -23457.194   -1101.1934    5277.7422    39.241723    39.299203    23.868552 
 3977000    216.76626   -355.60438    216156.16   -22108.798    1373.0455   -23481.844   -805.03253     5275.069    39.240644    39.299344    23.866615 
 3977200    223.49636   -261.90561    216156.16   -22023.846    1415.6754   -23439.521   -390.71884    5275.4333    39.241583    39.300457    23.865334 
 3977400    224.40112   -300.36261    216156.16   -22033.825    1421.4063   -23455.231   -607.89672    5278.2485    39.242439    39.300455    23.861194 
 3977600    220.99254   -310.89294    216156.16   -22048.444    1399.8156   -23448.259   -600.26069    5275.0507    39.242173     39.30044    23.863792 
 3977800    218.30456   -312.70959    216156.16   -22050.353    1382.7894   -23433.142   -660.47191    5277.5493    39.243376    39.300102    23.859973 
 3978000    219.18112   -376.76371    216156.16   -22071.785    1388.3417   -23460.127   -929.58245     5277.011     39.24326    39.300515    23.854359 
 3978200    228.45234    -317.5897    216156.16   -22002.888    1447.0677   -23449.956   -602.17667    5278.0403    39.243226    39.300583     23.85334 
 3978400    224.06488   -283.45752    216156.16   -22065.707    1419.2766   -23484.984    -490.1694    5277.2556    39.243335    39.300417    23.866348 
 3978600    223.24431   -217.53738    216156.16   -22026.971    1414.0789    -23441.05   -256.69492    5275.0049    39.243227    39.299349     23.86234 
 3978800     223.9674   -188.84497    216156.16   -22005.128    1418.6591   -23423.787   -105.19415     5276.059    39.242938    39.299273    23.859298 
 3979000    224.78877   -321.53766    216156.16   -22038.643    1423.8618   -23462.505   -691.87529    5277.9189     39.24236     39.30031    23.860973 
 3979200    221.54503   -366.38549    216156.16   -22066.552    1403.3153   -23469.867   -872.44313    5277.4881    39.241329    39.299917    23.855539 
 3979400    223.02568   -292.79498    216156.16   -22025.971     1412.694   -23438.665   -562.10283    5275.7599     39.24021    39.300728    23.854489 
 3979600    224.38782   -332.79816    216156.16   -22047.652    1421.3221   -23468.974   -749.59767    5276.5829    39.240154    39.301042    23.850671 
 3979800    225.82617   -291.99794    216156.16   -22044.498    1430.4329    -23474.93   -576.11149    5273.8481    39.238855    39.300108    23.848431 
 3980000    225.45591   -297.78671    216156.16   -22049.453    1428.0877    -23477.54   -581.11242    5276.1656    39.239399    39.301521    23.849091 
 3980200    222.89849   -211.35651    216156.16   -22044.978    1411.8884   -23456.867   -176.90762    5275.9184    39.239788    39.302102    23.854857 
 3980400    229.71268   -239.43831    216156.16   -22009.334    1455.0509   -23464.385   -345.61045    5275.3576    39.239892    39.302629    23.854521 
 3980600     228.1785   -368.03506    216156.16   -21967.168    1445.3331   -23412.501   -859.33202     5278.139    39.238285    39.303028    23.847502 
 3980800    223.21933   -317.69583    216156.16   -22004.843    1413.9206   -23418.763   -651.83614    5276.4434    39.236992    39.303471    23.846594 
 3981000    227.48838   -334.43819    216156.16   -22018.943    1440.9618   -23459.905   -750.46442    5275.9446     39.23649    39.304232    23.849035 
 3981200    224.70082   -314.96916    216156.16   -22018.019    1423.3047   -23441.324   -632.37339    5277.0155      39.2361    39.304564    23.845573 
 3981400    229.70078   -221.02849    216156.16   -21993.363    1454.9756   -23448.338   -206.71189    5276.7031    39.235113    39.305228    23.850664 
 3981600    221.74833    -255.1532    216156.16   -22050.419     1404.603   -23455.022   -373.17451    5277.3575     39.23468    39.304883    23.847092 
 3981800    224.79048   -362.19093    216156.16   -22037.349    1423.8727   -23461.222   -810.39747     5276.259    39.234113    39.305209    23.843734 
 3982000    220.73686   -240.28459    216156.16   -22074.125    1398.1961   -23472.321   -279.94625    5276.7939    39.233721    39.306533    23.845251 
 3982200    212.67002   -334.38861    216156.16   -22115.638     1347.099   -23462.737   -745.70219    5277.2951     39.23383    39.306673    23.852923 
 3982400    228.11833   -315.01313    216156.16   -22036.515     1444.952   -23481.467   -651.76875    5275.9995    39.232341    39.306318     23.84948 
 3982600    222.90626   -337.14076    216156.16    -22041.65    1411.9376   -23453.588   -746.13048    5275.7778    39.231477    39.306206    23.845045 
 3982800    222.95078   -341.83791    216156.16    -21996.32    1412.2196    -23408.54   -744.51834    5276.2287    39.230992    39.305848    23.849764 
 3983000     224.2452   -417.43553    216156.16   -21958.517    1420.4188   -23378.936   -1088.4661    5277.0819     39.23083    39.305186    23.858649 
 3983200    226.52473   -373.23031    216156.16   -21983.927    1434.8578   -23418.785   -895.13307    5276.7327    39.229917     39.30341    23.853446 
 3983400    226.99633   -217.13553    216156.16   -21950.119     1437.845   -23387.964   -241.03117    5277.2544    39.228973    39.303082    23.848405 
 3983600    223.15071   -223.93279    216156.16   -22028.208     1413.486   -23441.694   -235.30613    5275.9305    39.228488    39.302753    23.850803 
 3983800    222.51767   -421.23048    216156.16   -22006.207    1409.4762   -23415.683    -1100.165    5278.7643    39.226968    39.301744    23.852882 
 3984000    225.33652   -311.50717    216156.16   -22001.403    1427.3314   -23428.734   -630.73691    5276.3915    39.225852    39.300869     23.85591 
 3984200     224.8663   -295.45246    216156.16   -21974.767    1424.3529    -23399.12   -562.30223    5279.0831    39.224268    39.300478    23.853316 
 3984400    227.54399   -313.86606    216156.16   -22016.927     1441.314   -23458.241   -641.80589    5278.6912    39.223519    39.301038    23.852067 
 3984600    227.30203   -294.71369    216156.16   -22021.396    1439.7813   -23461.177   -552.03884    5280.5473    39.223128    39.299802    23.849191 
 3984800    224.37517   -164.83687    216156.16    -21984.43     1421.242   -23405.672    37.740046    5279.1286    39.222653    39.299946    23.851669 
 3985000    214.54826   -250.75747    216156.16   -22025.245    1358.9962   -23384.242    -364.4424    5279.7146    39.223228    39.300473    23.846133 
 3985200    225.98294   -286.76718    216156.16   -21971.171     1431.426   -23402.597   -562.70852    5278.6777    39.221039    39.301808    23.849198 
 3985400    226.55543   -292.92671    216156.16    -21985.91    1435.0522   -23420.963   -589.61252    5279.1164    39.218977    39.302485    23.850274 
 3985600    223.70276   -355.97493    216156.16   -21945.483    1416.9828   -23362.466   -832.71591    5280.0729    39.218029    39.303653    23.848554 
 3985800    223.56779   -280.28676    216156.16   -21963.447    1416.1279   -23379.575   -495.56078    5279.2854    39.216938    39.303167    23.848164 
 3986000    233.15711   -285.73891    216156.16   -21897.192    1476.8687   -23374.061   -498.17804    5280.2237    39.214993    39.302673    23.853308 
 3986200    232.24147   -359.90463    216156.16     -21934.3    1471.0689   -23405.369   -808.55224    5281.2538     39.21422    39.303096    23.854507 
 3986400    218.48374   -353.41054    216156.16   -22029.716    1383.9244   -23413.641   -807.39804    5281.4911    39.212978    39.301837    23.851953 
 3986600    225.04403   -282.50576    216156.16   -21995.328    1425.4787   -23420.807   -511.45562    5282.3263    39.212504    39.302351    23.844747 
 3986800    225.17667   -324.60513    216156.16   -21996.477    1426.3188   -23422.796   -650.25255    5279.0334     39.21176    39.302354    23.852202 
 3987000    226.01433   -248.09453    216156.16   -21980.077    1431.6248   -23411.702   -333.92362    5282.0671     39.21132    39.301729    23.855729 
 3987200    220.08115    -181.7168    216156.16   -22071.001    1394.0427   -23465.044   -101.53597    5281.7543    39.210585    39.301124    23.855474 
 3987400    218.37492   -255.03818    216156.16   -22025.894    1383.2351   -23409.129   -379.35391    5280.2308    39.210384    39.301637    23.852103 
 3987600    222.07415    -314.0469    216156.16   -21966.067    1406.6668   -23372.734   -651.99667    5281.9894    39.208437    39.301707    23.859474 
 3987800    227.31895     -276.311    216156.16   -22011.999    1439.8886   -23451.888   -444.58337    5282.2058    39.206688    39.302633    23.858485 
 3988000    232.59711   -284.95603    216156.16   -21960.317    1473.3216   -23433.638   -514.14993    5283.0896    39.206155    39.303094    23.862076 
 3988200     223.1437   -308.65016    216156.16    -21989.48    1413.4416   -23402.922   -606.68532    5281.4786    39.203815    39.303275    23.857993 
 3988400    223.17466   -249.72577    216156.16   -21971.359    1413.6377   -23384.997   -363.36456    5282.5726    39.202733    39.302639    23.851945 
 3988600    222.02877   -268.35492    216156.16   -22027.107    1406.3794   -23433.487   -465.49538    5282.1469    39.202012    39.303054    23.851414 
 3988800    225.07436   -264.76145    216156.16   -22028.742    1425.6708   -23454.413   -436.39145    5281.6734    39.201098     39.30393    23.850129 
 3989000    230.81192   -254.57074    216156.16   -21947.869    1462.0138   -23409.882   -385.98177    5282.2545    39.200223    39.303454    23.854757 
 3989200    224.38024   -356.07658    216156.16   -21980.709    1421.2741   -23401.983   -813.09058    5283.8008    39.198554    39.303496    23.842733 
 3989400    222.70064   -367.52553    216156.16   -22022.694    1410.6351   -23433.329   -898.98594    5281.4781    39.199119     39.30327    23.845247 
 3989600     227.1266   -326.01892    216156.16   -21930.968    1438.6702   -23369.638   -702.44545    5281.5624    39.196644    39.302672    23.849557 
 3989800    223.25648    -265.7549    216156.16   -21969.012     1414.156   -23383.168   -472.29267    5282.0403    39.194975    39.302867    23.849185 
 3990000    227.27842   -310.87677    216156.16   -22020.854    1439.6318   -23460.486   -636.32403    5282.8407    39.193787    39.303617    23.857506 
 3990200    220.99012   -451.81072    216156.16   -22010.975    1399.8004   -23410.775   -1246.8645    5283.0661    39.191468    39.305776    23.859759 
 3990400    229.33337   -316.78681    216156.16   -21983.814    1452.6484   -23436.462   -678.72147     5282.007    39.190518    39.306554    23.861389 
 3990600    222.41863   -182.03128    216156.16   -22031.102    1408.8488    -23439.95    -44.38332    5280.3823     39.18978    39.307661    23.855262 
 3990800     226.8972   -283.82989    216156.16   -22000.008    1437.2171   -23437.225   -489.72136    5280.6415    39.189456    39.309657    23.856666 
 3991000    229.92365   -287.00455    216156.16   -21959.604    1456.3873   -23415.991   -520.38404    5280.3583    39.187474    39.310637    23.850869 
 3991200    230.47075   -329.93298    216156.16   -21939.039    1459.8528   -23398.891   -689.23403     5278.772    39.186365    39.311705     23.85453 
 3991400    226.67893   -268.90394    216156.16   -21939.325    1435.8345    -23375.16   -510.26587    5279.6084    39.185711    39.311851    23.855612 
 3991600    228.46819   -195.27612    216156.16   -21996.843    1447.1681   -23444.011   -122.93512    5278.9747    39.185445     39.31235    23.851697 
 3991800    220.15372   -284.92512    216156.16   -22059.045    1394.5024   -23453.548   -492.86623    5280.2287    39.185487    39.312704    23.854836 
 3992000    225.36675   -230.75206    216156.16    -22002.89    1427.5229   -23430.413   -309.81569    5279.7352    39.184076    39.312843    23.850802 
 3992200    226.98757   -310.85384    216156.16   -21992.608    1437.7895   -23430.398   -647.86294    5282.1832      39.1822    39.313795    23.855949 
 3992400    222.75041   -325.84731    216156.16   -21998.185    1410.9504   -23409.136   -719.48156    5279.5572     39.18158    39.314499    23.850868 
 3992600    228.44921    -418.7503    216156.16   -21995.763    1447.0479   -23442.811   -1137.6505    5281.0119    39.180998    39.315678    23.845115 
 3992800    228.20418   -281.80282    216156.16   -21986.112    1445.4958   -23431.608   -517.09681    5280.8076    39.178916    39.316512    23.850326 
 3993000    216.79742   -280.27734    216156.16   -22074.107    1373.2428    -23447.35   -512.89551    5281.2183    39.177601    39.316594    23.851852 
 3993200    224.15401   -304.56158    216156.16   -21985.089    1419.8411    -23404.93   -579.97238     5279.426    39.175207    39.316885    23.849821 
 3993400    230.14641   -364.35805    216156.16   -21949.097    1457.7983   -23406.895   -880.12926    5281.2906    39.174645    39.317557    23.848841 
 3993600    224.37877   -386.90688    216156.16   -21954.901    1421.2648   -23376.165   -940.05568    5278.9274    39.172006    39.317523     23.86139 
 3993800    227.60749   -268.62773    216156.16   -21972.916    1441.7162   -23414.633   -435.94689    5280.6419    39.171732    39.318785    23.853194 
 3994000    223.54162   -289.51795    216156.16   -22004.087    1415.9621   -23420.049   -538.39239    5279.4753    39.171431    39.318881    23.849815 
 3994200    224.45975   -272.39675    216156.16   -22015.227    1421.7778   -23437.004    -465.9924    5279.1311    39.169031    39.317211    23.847854 
 3994400    224.37595   -158.60159    216156.16   -21989.691    1421.2469   -23410.938    68.479406    5277.8948    39.167073    39.316735    23.848732 
 3994600    216.57281   -247.94349    216156.16   -22066.007    1371.8201   -23437.827   -317.40117    5277.6455    39.165828    39.316009    23.857812 
 3994800    228.29729   -317.99349    216156.16   -21963.241    1446.0856   -23409.327   -712.54167    5278.4849    39.164782    39.316481    23.848091 
 3995000    224.70634   -310.70306    216156.16   -21978.081    1423.3397   -23401.421   -606.17286    5277.5818    39.164472    39.315631    23.854045 
 3995200    220.65585   -354.13598    216156.16   -22035.664     1397.683   -23433.347    -780.5889    5279.0982    39.163547    39.316432    23.852037 
 3995400    225.38188   -292.60986    216156.16   -21978.065    1427.6187   -23405.684   -531.55694    5279.6978    39.162752     39.31642    23.846834 
 3995600    227.66324   -320.44202    216156.16   -21909.363    1442.0693   -23351.432   -644.06749    5278.7124    39.160777    39.316376    23.839113 
 3995800    225.28967   -183.98387    216156.16    -21939.88    1427.0346   -23366.915   -74.987859    5279.1563    39.159109    39.315671    23.846068 
 3996000    240.72359   -244.85017    216156.16   -21890.463    1524.7965   -23415.259    -371.2436    5278.9074    39.158489    39.316247    23.847734 
 3996200    223.42796   -383.85229    216156.16   -21955.321    1415.2422   -23370.563   -970.81377    5278.9534    39.156157     39.31801    23.849716 
 3996400    221.57457   -361.81163    216156.16   -21983.297    1403.5024   -23386.799   -821.66386    5279.5046    39.153959    39.319459    23.851952 
 3996600    223.77209   -353.60256    216156.16   -21955.421    1417.4219   -23372.843   -844.99119    5281.5148    39.154013    39.318824    23.839879 
 3996800    224.31233   -239.22155    216156.16   -22000.031    1420.8439   -23420.875   -308.42851     5279.768    39.153375    39.319869    23.841805 
 3997000     233.3777   -259.15711    216156.16   -21894.442     1478.266   -23372.708   -388.36218    5280.4405    39.152582    39.321604    23.851635 
 3997200    223.34926   -247.56075    216156.16   -21952.071    1414.7437   -23366.815   -377.23241    5280.0411    39.151948     39.32271    23.854068 
 3997400    221.45239   -278.53235    216156.16   -22011.033    1402.7285   -23413.761   -473.33048    5279.4207     39.15029    39.322965    23.846226 
 3997600    227.20329   -239.99798    216156.16   -21951.337    1439.1559   -23390.493   -355.40642    5277.9965    39.150159    39.323882     23.84356 
 3997800    221.15546   -329.89505    216156.16   -22081.244    1400.8476   -23482.092   -716.49035    5279.1629    39.148715     39.32428    23.844321 
 3998000    223.61589   -516.74377    216156.16   -22000.577    1416.4325    -23417.01   -1529.2243    5280.8922    39.148003     39.32545    23.841107 
 3998200    220.38331   -423.54712    216156.16   -22049.285    1395.9566   -23445.241   -1109.4573    5279.7601    39.146112    39.325568    23.849644 
 3998400    231.59762   -213.95875    216156.16   -21924.074    1466.9906   -23391.065   -208.92172    5279.2266    39.145174    39.325657    23.846313 
 3998600    224.40803   -275.96813    216156.16   -22002.523    1421.4502   -23423.973   -494.19437    5277.7968    39.143592    39.326448     23.84187 
 3998800    224.10349   -273.83788    216156.16   -21994.621    1419.5211   -23414.142   -497.90833    5277.8326     39.14278     39.32668     23.84326 
 3999000    225.92466   -291.69656    216156.16   -21944.549    1431.0568   -23375.606   -559.01514    5279.3966    39.141486    39.326085    23.837901 
 3999200    227.19971   -343.39857    216156.16   -22001.871    1439.1333   -23441.004   -777.96868    5277.2558    39.141839    39.326537    23.842553 
 3999400    224.35892   -270.24453    216156.16    -22046.65    1421.1391   -23467.789   -432.95592    5276.6687     39.14158    39.326475    23.847757 
 3999600    218.44921     -363.246    216156.16   -22060.081    1383.7057   -23443.787    -866.3204    5278.1762    39.140698    39.327419     23.84849 
 3999800       231.89   -362.85552    216156.16   -21973.278    1468.8426   -23442.121   -853.03569     5275.697    39.139981    39.326424    23.844675 
 4000000    228.84107   -308.19397    216156.16   -21972.709      1449.53   -23422.239   -613.76431    5276.3985    39.140875    39.327262    23.840222 
Loop time of 6180.37 on 120 procs for 4000000 steps with 9422 atoms

Performance: 559.190 ns/day, 0.043 hours/ns, 647.211 timesteps/s
98.1% CPU use with 120 MPI tasks x no OpenMP threads

MPI task timing breakdown:
Section |  min time  |  avg time  |  max time  |%varavg| %total
---------------------------------------------------------------
Pair    | 0.3129     | 1611.8     | 4813.7     |3831.5 | 26.08
Neigh   | 2.8108     | 97.956     | 316.78     |1044.3 |  1.58
Comm    | 370.43     | 2345.9     | 4819.4     |3007.3 | 37.96
Output  | 73.42      | 73.479     | 75.104     |   1.8 |  1.19
Modify  | 338.31     | 2011       | 5689.1     |4851.7 | 32.54
Other   |            | 40.16      |            |       |  0.65

Nlocal:    78.5167 ave 207 max 0 min
Histogram: 33 29 18 0 0 0 0 2 17 21
Nghost:    691.083 ave 913 max 528 min
Histogram: 32 1 14 2 25 7 11 11 9 8
Neighs:    0 ave 0 max 0 min
Histogram: 120 0 0 0 0 0 0 0 0 0
FullNghs:  7945.77 ave 25058 max 0 min
Histogram: 68 12 0 0 0 0 0 8 20 12

Total # of neighbors = 953492
Ave neighs/atom = 101.198
Neighbor list builds = 425774
Dangerous builds = 0
write_data 		${DIR}/data.${NAME}_run
write_data 		run_17/data.${NAME}_run
write_data 		run_17/data.ibeam_cooling_17_run
Total wall time: 1:43:16
