

### IMPORT ATOMS ###
read_data ../Box_Setup/data.Ibeam_240K
  orthogonal box = (0 0 0) to (157.504 42.9242 26.8557)
  10 by 5 by 2 MPI processor grid
  reading atoms ...
  9253 atoms
  reading velocities ...
  9253 velocities
group water type 2
1381 atoms in group water
group graphite type 1
7872 atoms in group graphite


# Define potential
#
pair_style          sw
pair_coeff * * MLC_e.sw C mW

# Add velocity/set timestep
#

fix		1 graphite setforce 0.0 0.0 0.0
velocity 	graphite set 0.0 0.0 0.0
velocity            water create ${START_TEMP} ${SEED} rot yes dist gaussian
velocity            water create 240 ${SEED} rot yes dist gaussian
velocity            water create 240 19299 rot yes dist gaussian
timestep            5.0

# Define output
#
compute 1 water msd
compute 2 water temp


thermo	            100
thermo_style custom step c_2 press vol etotal ke pe c_1[4] density

# Neighbor lists
#
neigh_modify        delay 0 every 1 check yes


# Set fixes
#
fix                 2 water momentum 10 linear 1 1 1 rescale
fix                 3 all nve
fix                 4 water temp/csvr ${START_TEMP} ${START_TEMP} 500.0 928347
fix                 4 water temp/csvr 240 ${START_TEMP} 500.0 928347
fix                 4 water temp/csvr 240 240 500.0 928347

# Run 0.05 ns equilibration
#
dump                1 all custom 100 ${DIR}/eq.${NAME}.dump id type x y z vx vy vz
dump                1 all custom 100 run_22/eq.${NAME}.dump id type x y z vx vy vz
dump                1 all custom 100 run_22/eq.ibeam_cooling_22.dump id type x y z vx vy vz
run                 10000
Neighbor list info ...
  update every 1 steps, delay 0 steps, check yes
  max neighbors/atom: 2000, page size: 100000
  master list distance cutoff = 6.67472
  ghost atom cutoff = 6.67472
  binsize = 3.33736, bins = 48 13 9
  1 neighbor lists, perpetual/occasional/extra = 1 0 0
  (1) pair sw, perpetual
      attributes: full, newton on
      pair build: full/bin/atomonly
      stencil: full/bin/3d
      bin: standard
Per MPI rank memory allocation (min/avg/max) = 3.369 | 4.254 | 4.745 Mbytes
Step c_2 Press Volume TotEng KinEng PotEng c_1[4] Density 
       0          240   -344.39513    181563.75    -13284.54    987.24429   -14271.784            0    1.0922001 
     100    243.56589   -293.64054    181563.75   -13255.544    1001.9127   -14257.457    0.8902532    1.0922001 
     200    241.02103   -336.99985    181563.75   -13292.036     991.4443   -14283.481    1.3388086    1.0922001 
     300    242.42007   -306.36825    181563.75     -13267.3    997.19929   -14264.499     1.856611    1.0922001 
     400    237.88982   -194.58912    181563.75   -13281.887    978.56404   -14260.451    2.2167262    1.0922001 
     500    235.53391   -411.31498    181563.75   -13288.023    968.87297   -14256.896    2.5903109    1.0922001 
     600    230.15571   -475.88938    181563.75   -13368.253    946.74961   -14315.002    3.0295235    1.0922001 
     700     234.1993    -473.0766    181563.75   -13350.896      963.383   -14314.279    3.4092371    1.0922001 
     800    230.08513   -292.86522    181563.75   -13386.759     946.4593   -14333.218     3.542202    1.0922001 
     900     236.5549   -268.89772    181563.75   -13357.446     973.0728   -14330.519    3.8344483    1.0922001 
    1000    250.95125   -376.06033    181563.75   -13317.872    1032.2925   -14350.164    4.3599581    1.0922001 
    1100    240.50024    -347.8976    181563.75   -13327.744    989.30202   -14317.046    4.7384783    1.0922001 
    1200    229.88381   -345.31097    181563.75   -13369.077    945.63116   -14314.708    5.1196974    1.0922001 
    1300    234.45945   -268.36401    181563.75   -13337.788    964.45313   -14302.241    5.5708708    1.0922001 
    1400    250.29543   -508.82767    181563.75   -13284.844    1029.5947   -14314.439    5.8863606    1.0922001 
    1500    249.55402   -303.98706    181563.75   -13296.918    1026.5449   -14323.463    6.2090249    1.0922001 
    1600    238.54084   -286.10672    181563.75    -13285.04    981.24199   -14266.282    6.6220827    1.0922001 
    1700    237.37213   -457.94014    181563.75   -13305.149    976.43449   -14281.584    6.8881054    1.0922001 
    1800    244.32832   -487.34244    181563.75   -13307.859    1005.0489   -14312.908    7.0959317    1.0922001 
    1900     254.0577   -261.80922    181563.75   -13249.147    1045.0709   -14294.218    7.2779593    1.0922001 
    2000    248.31991   -290.29648    181563.75   -13234.729    1021.4684   -14256.198    7.8016533    1.0922001 
    2100    246.64994   -294.97041    181563.75   -13242.528     1014.599   -14257.127    7.8856941    1.0922001 
    2200    247.90838   -241.26046    181563.75   -13244.479    1019.7755   -14264.254    8.2557082    1.0922001 
    2300    239.16981   -278.49564    181563.75   -13292.364     983.8293   -14276.193    8.4914188    1.0922001 
    2400    238.70965   -368.57035    181563.75   -13294.176    981.93643   -14276.113    8.9188433    1.0922001 
    2500    242.25962   -469.66762    181563.75   -13285.877    996.53927   -14282.417    8.9470489    1.0922001 
    2600    235.85267   -317.35845    181563.75    -13314.16    970.18419   -14284.344    9.1800849    1.0922001 
    2700    237.60037   -262.04785    181563.75   -13291.913    977.37335   -14269.286    9.4551433    1.0922001 
    2800    239.74709    -291.8228    181563.75   -13295.363    986.20392   -14281.567    9.9456894    1.0922001 
    2900    229.89345    -512.5298    181563.75   -13333.344     945.6708   -14279.015    10.242916    1.0922001 
    3000    237.91073   -296.93711    181563.75   -13346.456    978.65005   -14325.106    10.466387    1.0922001 
    3100    232.60541    -463.9593    181563.75   -13342.488     956.8265   -14299.315    10.748414    1.0922001 
    3200    232.78299   -381.81032    181563.75   -13358.256      957.557   -14315.813    10.976583    1.0922001 
    3300    232.32922   -477.16165    181563.75   -13319.458     955.6904   -14275.148    11.382037    1.0922001 
    3400    232.13428   -327.36266    181563.75   -13327.428    954.88852   -14282.317    11.718213    1.0922001 
    3500    234.70705   -437.18534    181563.75   -13321.945    965.47163   -14287.417    12.095964    1.0922001 
    3600    244.65221   -364.65581    181563.75   -13296.791    1006.3812   -14303.172    12.476491    1.0922001 
    3700    240.14287   -413.70377    181563.75   -13331.812      987.832   -14319.644    12.913401    1.0922001 
    3800    236.82334   -424.12335    181563.75   -13326.178    974.17705   -14300.356    13.349058    1.0922001 
    3900     247.7954    -251.1077    181563.75   -13337.953    1019.3108   -14357.263    13.572706    1.0922001 
    4000    242.42202   -358.21418    181563.75   -13347.063    997.20729   -14344.271    13.763897    1.0922001 
    4100    244.07212   -213.46991    181563.75   -13317.719     1003.995   -14321.714    14.292998    1.0922001 
    4200    247.79134   -292.58741    181563.75   -13285.479    1019.2941   -14304.773    14.547829    1.0922001 
    4300    255.62108   -226.92843    181563.75   -13228.659    1051.5019    -14280.16    15.233446    1.0922001 
    4400    240.55348   -355.48001    181563.75   -13234.943    989.52104   -14224.464    15.667976    1.0922001 
    4500    243.05854   -358.30165    181563.75   -13282.387    999.82564   -14282.212    16.076916    1.0922001 
    4600    247.10053   -459.44332    181563.75    -13297.99    1016.4524   -14314.442    16.326889    1.0922001 
    4700    240.02178   -504.03862    181563.75   -13295.337    987.33386   -14282.671    16.633308    1.0922001 
    4800    251.67511   -486.33734    181563.75   -13273.545    1035.2701   -14308.815    16.491329    1.0922001 
    4900     233.0103   -478.14393    181563.75   -13291.999    958.49203   -14250.491    16.764685    1.0922001 
    5000    230.45815   -345.02179    181563.75   -13307.518     947.9937   -14255.512    17.009574    1.0922001 
    5100    232.40903   -206.44044    181563.75   -13324.516    956.01872   -14280.535    17.413747    1.0922001 
    5200    236.79309   -337.35051    181563.75   -13318.055     974.0526   -14292.107    17.441261    1.0922001 
    5300     235.1193   -425.11349    181563.75   -13364.641    967.16743   -14331.808    17.929476    1.0922001 
    5400    238.25543   -378.16448    181563.75   -13337.232    980.06798     -14317.3      18.4119    1.0922001 
    5500    234.20575   -354.59581    181563.75   -13359.065    963.40955   -14322.475    18.697444    1.0922001 
    5600    231.80986   -416.16182    181563.75   -13367.679    953.55402   -14321.233    18.983601    1.0922001 
    5700    240.86496   -501.86394    181563.75   -13328.958    990.80232    -14319.76    19.372877    1.0922001 
    5800    249.06152   -203.69361    181563.75   -13271.386     1024.519   -14295.905    19.173598    1.0922001 
    5900    239.47507   -409.50293    181563.75   -13312.473    985.08498   -14297.558    19.388303    1.0922001 
    6000    239.59504   -400.41104    181563.75   -13377.537    985.57849   -14363.115    19.603322    1.0922001 
    6100    232.27021   -448.15368    181563.75   -13357.419    955.44766   -14312.866    20.131241    1.0922001 
    6200    231.50403   -440.77793    181563.75   -13322.211    952.29595   -14274.507    20.483718    1.0922001 
    6300    244.46224   -412.47181    181563.75   -13291.277    1005.5998   -14296.877    20.587975    1.0922001 
    6400    237.59545   -327.16237    181563.75   -13283.746    977.35312     -14261.1    20.739601    1.0922001 
    6500    243.87102    -420.0639    181563.75   -13297.656    1003.1678   -14300.824    21.032071    1.0922001 
    6600    230.57919   -331.45019    181563.75   -13324.558    948.49161    -14273.05    21.437355    1.0922001 
    6700    230.79582   -355.01764    181563.75   -13334.672    949.38274   -14284.055    21.907668    1.0922001 
    6800    234.36985   -415.14572    181563.75    -13314.91    964.08457   -14278.995    22.341374    1.0922001 
    6900      234.061   -514.36119    181563.75   -13349.211     962.8141   -14312.025    22.842666    1.0922001 
    7000    233.02153   -384.71266    181563.75   -13350.168    958.53823   -14308.706    22.879635    1.0922001 
    7100    242.01982   -249.78919    181563.75   -13275.316    995.55287   -14270.869    23.061607    1.0922001 
    7200    244.34088   -274.94911    181563.75   -13295.113    1005.1006   -14300.214    23.175417    1.0922001 
    7300    228.62954   -378.51343    181563.75   -13352.337     940.4717   -14292.809    23.518581    1.0922001 
    7400    233.18636   -353.40083    181563.75   -13354.735    959.21625   -14313.951    23.914651    1.0922001 
    7500    240.53541   -298.60177    181563.75   -13375.783     989.4467    -14365.23    23.968953    1.0922001 
    7600    235.94362   -364.89602    181563.75   -13387.747    970.55829   -14358.305     23.90942    1.0922001 
    7700     234.9311   -381.51424    181563.75   -13366.413    966.39326   -14332.806    24.418035    1.0922001 
    7800     242.5604   -302.35241    181563.75   -13325.079    997.77655   -14322.855    24.792515    1.0922001 
    7900    236.65423    -391.3875    181563.75   -13317.985     973.4814   -14291.466    25.173523    1.0922001 
    8000    239.14497   -269.41345    181563.75   -13315.777    983.72712   -14299.504    25.086876    1.0922001 
    8100    240.33258   -417.04345    181563.75   -13333.905    988.61237   -14322.517    25.621728    1.0922001 
    8200    236.43087   -386.55697    181563.75   -13366.127    972.56259    -14338.69     25.84191    1.0922001 
    8300    231.57409   -454.67019    181563.75   -13387.362    952.58416   -14339.946    25.767914    1.0922001 
    8400    235.76849   -259.34326    181563.75   -13385.773     969.8379   -14355.611    26.224936    1.0922001 
    8500    240.96878   -291.03803    181563.75   -13377.245    991.22937   -14368.475    26.477172    1.0922001 
    8600    235.39351   -341.62152    181563.75    -13342.06     968.2954   -14310.356    26.853498    1.0922001 
    8700    233.15956   -383.59494    181563.75    -13402.91      959.106   -14362.016    27.408172    1.0922001 
    8800    238.54508   -472.30522    181563.75   -13347.144    981.25945   -14328.404    27.940607    1.0922001 
    8900    240.00977   -471.76566    181563.75   -13372.322    987.28446   -14359.607    28.502903    1.0922001 
    9000    245.39664   -311.41518    181563.75   -13344.392    1009.4435   -14353.836    28.800912    1.0922001 
    9100    239.85069   -443.63693    181563.75   -13350.489    986.63011   -14337.119    28.909811    1.0922001 
    9200    237.74138    -394.8515    181563.75   -13393.136     977.9534    -14371.09    29.714278    1.0922001 
    9300    233.56173   -365.58579    181563.75   -13410.825    960.76037   -14371.585    30.086678    1.0922001 
    9400    240.18143   -456.13142    181563.75   -13424.522    987.99059   -14412.513      30.4273    1.0922001 
    9500    236.06304   -373.95165    181563.75   -13409.395    971.04955   -14380.445    30.756326    1.0922001 
    9600    229.42801   -228.79266    181563.75   -13456.657    943.75622   -14400.413    30.950534    1.0922001 
    9700    237.62715   -392.22732    181563.75   -13392.164    977.48353   -14369.648    31.094194    1.0922001 
    9800    226.36067     -238.455    181563.75   -13405.082    931.13867    -14336.22    31.625664    1.0922001 
    9900    244.92364   -303.72388    181563.75   -13344.731    1007.4978   -14352.229    31.501345    1.0922001 
   10000    240.65905   -345.24394    181563.75    -13289.87    989.95531   -14279.826    31.680537    1.0922001 
Loop time of 15.8164 on 100 procs for 10000 steps with 9253 atoms

Performance: 273.134 ns/day, 0.088 hours/ns, 632.254 timesteps/s
97.7% CPU use with 100 MPI tasks x no OpenMP threads

MPI task timing breakdown:
Section |  min time  |  avg time  |  max time  |%varavg| %total
---------------------------------------------------------------
Pair    | 0.00093675 | 4.432      | 13.799     | 236.0 | 28.02
Neigh   | 0.0052872  | 0.15827    | 0.36908    |  31.6 |  1.00
Comm    | 0.21107    | 2.8941     | 10.439     | 174.7 | 18.30
Output  | 0.15474    | 0.15496    | 0.16861    |   0.3 |  0.98
Modify  | 0.28384    | 8.0399     | 15.318     | 227.7 | 50.83
Other   |            | 0.1371     |            |       |  0.87

Nlocal:    92.53 ave 187 max 0 min
Histogram: 30 0 10 10 0 0 0 4 33 13
Nghost:    792.88 ave 1111 max 574 min
Histogram: 24 6 0 24 14 2 9 10 1 10
Neighs:    0 ave 0 max 0 min
Histogram: 100 0 0 0 0 0 0 0 0 0
FullNghs:  9985.42 ave 23134 max 0 min
Histogram: 34 16 0 0 0 0 3 21 21 5

Total # of neighbors = 998542
Ave neighs/atom = 107.915
Neighbor list builds = 557
Dangerous builds = 0
write_data 	    ${DIR}/data.${NAME}_eq
write_data 	    run_22/data.${NAME}_eq
write_data 	    run_22/data.ibeam_cooling_22_eq

undump              1
unfix               4



################################################
#######         Run Simulation         #########
################################################

reset_timestep      0
timestep	    10.0
log                 ${DIR}/log.run_${NAME}
log                 run_22/log.run_${NAME}
log                 run_22/log.run_ibeam_cooling_22
