
# Set production fixes - Nose/Hoover
#
fix                 4 water temp/csvr ${START_TEMP} ${END_TEMP} 500.0 928347
fix                 4 water temp/csvr 240 ${END_TEMP} 500.0 928347
fix                 4 water temp/csvr 240 227 500.0 928347


## divide "droplet" into core and surface
#region		core_reg cylinder z 135 135 44.6 20 INF units box
#region		surface_reg cylinder z 135 135 44.6 20 INF units box side out
#group		core dynamic all region core_reg
#group		surface dynamic all region surface_reg

## compute pressure core
#compute        peratom_core core stress/atom NULL
#compute        p_core core reduce sum c_peratom_core[1] c_peratom_core[2] c_peratom_core[3]
#variable       press_core equal -(c_p_core[1]+c_p_core[2]+c_p_core[3])/(3*1249982.5)


## compute pressure surface
#compute        peratom_surf surface stress/atom NULL
#compute        p_surf surface reduce sum c_peratom_surf[1] c_peratom_surf[2] #c_peratom_surf[3]
#variable       press_surf equal -(c_p_surf[1]+c_p_surf[2]+c_p_surf[3])/(3*33365)

## compute total pressure of drop
compute        peratom water stress/atom NULL
compute        p water reduce sum c_peratom[1] c_peratom[2] c_peratom[3]
variable       press equal -(c_p[1]+c_p[2]+c_p[3])/(3*50320)


# compute order parameter
compute        3 all orientorder/atom nnn NULL cutoff 3.5

# compute center of mass of bridge
compute 	4 water com

# Run simulation
thermo_style        custom step c_2 press vol etotal ke pe v_press c_1[4] c_4[*]
thermo              200
dump		     1 water custom 400 ${DIR}/prod.${NAME}.dump id type x y z vx vy vz c_3[*] c_peratom[*]
dump		     1 water custom 400 run_22/prod.${NAME}.dump id type x y z vx vy vz c_3[*] c_peratom[*]
dump		     1 water custom 400 run_22/prod.ibeam_cooling_22.dump id type x y z vx vy vz c_3[*] c_peratom[*]
run                 ${STEPS}
run                 5200000
Neighbor list info ...
  update every 1 steps, delay 0 steps, check yes
  max neighbors/atom: 2000, page size: 100000
  master list distance cutoff = 6.67472
  ghost atom cutoff = 6.67472
  binsize = 3.33736, bins = 48 13 9
  2 neighbor lists, perpetual/occasional/extra = 1 1 0
  (1) pair sw, perpetual
      attributes: full, newton on
      pair build: full/bin/atomonly
      stencil: full/bin/3d
      bin: standard
  (2) compute orientorder/atom, occasional, copy from (1)
      attributes: full, newton on
      pair build: copy
      stencil: none
      bin: none
Per MPI rank memory allocation (min/avg/max) = 6.146 | 6.612 | 7.275 Mbytes
Step c_2 Press Volume TotEng KinEng PotEng v_press c_1[4] c_4[1] c_4[2] c_4[3] 
       0    240.65905   -345.24394    181563.75    -13289.87    989.95531   -14279.826   -626.13937    31.680537    78.729234    25.126676    16.414524 
     200    243.75138   -336.07895    181563.75   -13300.261    1002.6756   -14302.936   -637.75439    33.578508    78.729763    25.129266    16.429819 
     400    241.46087   -524.54985    181563.75    -13325.37     993.2536   -14318.624   -1308.3511    34.344318    78.728861    25.132144    16.458777 
     600    222.53422   -345.27877    181563.75   -13415.073    915.39851   -14330.471   -673.99816    35.643912    78.725277    25.132394     16.45406 
     800    230.31627    -408.1775    181563.75   -13404.692    947.41008   -14352.102   -879.14906    37.243932     78.71924    25.132404    16.410813 
    1000    242.47122   -229.30493    181563.75   -13314.332    997.40969   -14311.742   -279.19681    38.767585    78.717708    25.127673    16.403234 
    1200     233.9935   -400.19053    181563.75   -13357.725    962.53644   -14320.262   -853.72183    39.801811    78.718564    25.124647    16.434825 
    1400    244.28295   -421.36635    181563.75   -13258.197    1004.8623    -14263.06   -971.68535    41.302047    78.715895    25.123895    16.453327 
    1600    242.63658   -188.08997    181563.75   -13294.879    998.08993   -14292.969   -110.32093    43.160112     78.71268    25.119932    16.428636 
    1800    241.33539   -291.18918    181563.75   -13324.635    992.73744   -14317.372   -467.40898    44.890219    78.709196    25.117817    16.447088 
    2000    244.61358   -371.67882    181563.75    -13215.96    1006.2223   -14222.182   -816.49558    46.597919    78.714077    25.115495    16.456856 
    2200    251.13112   -252.87351    181563.75   -13268.273    1033.0324   -14301.305   -327.91636    48.039829    78.710652    25.116721    16.465457 
    2400    239.01112   -274.97088    181563.75   -13317.568    983.17653   -14300.744   -450.53342    49.331929    78.709995    25.116368    16.455365 
    2600    244.36731   -446.19866    181563.75   -13336.091    1005.2093     -14341.3    -986.9126    49.982427    78.710363    25.117513    16.443067 
    2800    239.81491   -446.03543    181563.75   -13304.557    986.48293    -14291.04   -1018.4677    50.811627    78.711128    25.119177    16.463925 
    3000    230.31428   -427.05503    181563.75   -13375.027    947.40191   -14322.429   -947.57244    52.411462    78.707006     25.11914    16.460785 
    3200    228.33584   -275.89168    181563.75   -13346.079    939.26358   -14285.342   -386.40064    52.828107    78.707952    25.119507    16.453617 
    3400    235.02275   -406.65801    181563.75   -13294.175    966.77028   -14260.946   -870.17105    53.046918    78.707825    25.120669    16.443398 
    3600    245.36788   -411.30817    181563.75    -13297.55    1009.3251   -14306.875   -875.75859    53.501741    78.706355    25.118611    16.440725 
    3800    235.36875   -329.36538    181563.75   -13298.073    968.19358   -14266.267   -611.31045    54.244091     78.70451    25.117034    16.460624 
    4000    237.71249   -290.61874    181563.75   -13326.034    977.83456   -14303.869   -490.35786    54.977436    78.700297    25.118915    16.474248 
    4200    240.70269   -490.31251    181563.75    -13291.73    990.13483   -14281.865   -1211.4639    57.005865    78.698799    25.118814    16.471319 
    4400    248.58187    -316.9197    181563.75   -13241.157     1022.546   -14263.703   -576.35091    58.120084    78.700805    25.115939    16.461676 
    4600    239.57214    -227.1524    181563.75   -13313.354    985.48427   -14298.838   -232.73283    58.717818    78.703853     25.11165    16.492472 
    4800    240.34555   -269.77141    181563.75   -13269.739    988.66572   -14258.404   -340.52697    60.126736     78.70438    25.112068    16.470893 
    5000    240.57641    -173.6144    181563.75   -13312.087    989.61538   -14301.703   -38.736764    61.447149    78.700558    25.110854     16.45654 
    5200    236.72218   -476.90716    181563.75   -13319.228     973.7609   -14292.989   -1160.1137    62.275197    78.697433    25.110353      16.4484 
    5400     235.9109   -516.20913    181563.75   -13317.648    970.42369   -14288.071   -1239.9927    63.597803    78.699707    25.112944    16.433615 
    5600    229.93125   -341.36168    181563.75   -13386.252    945.82631   -14332.078   -634.43293     64.49531     78.70144    25.114275    16.434442 
    5800    246.50538   -336.85296    181563.75   -13244.301    1014.0043   -14258.305   -604.41104    65.998728    78.703407    25.114256    16.426587 
    6000    229.45808    -398.6807    181563.75   -13383.263     943.8799   -14327.143   -849.62886    67.453377    78.704894    25.116958    16.438308 
    6200    236.18977   -407.46249    181563.75     -13305.8    971.57082   -14277.371   -859.53303    68.404138      78.7042    25.119312    16.435063 
    6400    240.85281   -232.54342    181563.75   -13280.032    990.75235   -14270.784   -220.45238    70.056391    78.701572    25.119857    16.396857 
    6600    232.23701   -372.23018    181563.75   -13320.526    955.31109   -14275.837    -739.7128    72.026986     78.69855    25.115784    16.436703 
    6800    237.33299   -395.28002    181563.75   -13295.407     976.2735    -14271.68   -848.26513     71.61677    78.697025    25.114762    16.423911 
    7000    231.61647   -407.03966    181563.75   -13347.908    952.75847   -14300.667   -932.16207     71.96593    78.696928    25.111387    16.407723 
    7200    238.81222   -342.81938    181563.75   -13261.286    982.35833   -14243.644   -668.66664     73.44135    78.698188    25.114181     16.40523 
    7400    228.93498   -506.93399    181563.75    -13315.27    941.72813   -14256.998    -1204.909    75.734474    78.699717    25.114122    16.392356 
    7600    234.62953   -333.46286    181563.75   -13330.607    965.15277    -14295.76   -611.23152    76.073363    78.700287    25.116464    16.397978 
    7800    245.10139   -471.53844    181563.75   -13260.699    1008.2289   -14268.928   -1106.7994    77.731247    78.697124       25.118    16.411378 
    8000    239.88007   -272.20444    181563.75   -13277.766    986.75095   -14264.517   -398.65901    79.424562    78.692795     25.12406    16.427891 
    8200    241.70628    -405.7111    181563.75   -13332.826    994.26312   -14327.089   -865.05723    81.105473    78.691078    25.120839    16.412226 
    8400    237.46232   -206.32646    181563.75   -13340.789    976.80549   -14317.594   -168.66299    82.643689    78.691337    25.116888    16.399696 
    8600    238.47371   -251.36118    181563.75   -13263.856    980.96588   -14244.822   -331.64947    84.445361    78.691111    25.115332     16.39938 
    8800    235.50376   -260.01601    181563.75   -13273.604    968.74894   -14242.353   -365.83347    85.205303    78.693446    25.113248    16.385888 
    9000    238.47294   -310.98672    181563.75   -13266.124    980.96269   -14247.086   -517.33812    86.142367    78.693107    25.111115    16.368969 
    9200    241.14597   -429.97331    181563.75   -13312.733    991.95827   -14304.691   -957.73957    87.869093    78.693565    25.110592    16.370355 
    9400    232.57684    -258.8414    181563.75   -13330.373    956.70897   -14287.082   -350.59667    89.214116    78.692769    25.111673    16.379391 
    9600    234.14682   -413.16123    181563.75    -13362.66    963.16714   -14325.828   -951.47246    89.994352     78.69398    25.112778    16.400348 
    9800    237.35624   -376.03362    181563.75   -13310.018    976.36913   -14286.387   -768.79818    91.820719    78.695391    25.112775    16.412986 
   10000    244.63217   -344.05475    181563.75   -13208.298    1006.2988   -14214.597   -692.36423    93.205405    78.695723    25.106713    16.395505 
   10200    243.85817   -339.72899    181563.75   -13242.047     1003.115   -14245.162   -653.16528    94.410658     78.69903    25.106043    16.416427 
   10400    239.97882   -506.40074    181563.75   -13279.054    987.15716   -14266.211   -1268.4296    96.072921    78.698345     25.10373    16.420916 
   10600    243.10045   -113.13628    181563.75   -13257.085    999.99804   -14257.083     176.7604    96.394901    78.696958     25.10408    16.427421 
   10800    241.71646   -382.55395    181563.75   -13285.421    994.30498   -14279.726   -755.13958    98.514035    78.694146    25.106595    16.447542 
   11000    242.02071   -220.04709    181563.75    -13325.06    995.55651   -14320.617   -210.90008    100.11038    78.694536     25.10251    16.461508 
   11200    236.39168   -420.92203    181563.75   -13304.434     972.4014   -14276.835   -975.44265    101.66858    78.690516    25.102258    16.478872 
   11400     246.7113   -279.24553    181563.75   -13298.826    1014.8513   -14313.677   -444.05182    102.44866    78.690987    25.100349    16.472867 
   11600    242.25202   -285.00346    181563.75    -13255.84    996.50801   -14252.348   -451.94064    103.36054    78.687055    25.101144    16.450238 
   11800    236.34039    -310.9685    181563.75   -13247.897    972.19042   -14220.088    -547.6028    104.83741    78.686806    25.106836    16.489787 
   12000    246.61753   -443.66218    181563.75   -13205.874    1014.4656    -14220.34   -1058.7766     105.8442    78.687065    25.110746    16.516615 
   12200    240.08081   -316.10638    181563.75   -13259.441    987.57668   -14247.017   -544.85597    105.99597    78.679542    25.112383    16.513807 
   12400    242.73109    -443.1261    181563.75   -13207.375    998.47866   -14205.853   -1004.7153    107.02581    78.676376    25.112618    16.518545 
   12600    246.83254   -326.25863    181563.75   -13185.178    1015.3501   -14200.528   -566.20579    107.25776    78.674332    25.111837      16.5043 
   12800    241.15079   -410.53494    181563.75   -13306.832    991.97807    -14298.81   -884.92065    109.47091    78.673094    25.114068    16.509433 
   13000    234.66284   -456.88439    181563.75   -13344.729    965.28979   -14310.019     -1067.98    111.34374     78.67265     25.11409    16.505422 
   13200    237.62174    -481.5552    181563.75   -13285.579    977.46128    -14263.04   -1176.0588     113.3076    78.672076    25.119388    16.478787 
   13400    247.19602    -336.2051    181563.75   -13271.878    1016.8453   -14288.724   -632.95071    113.63476    78.670639    25.121668    16.493027 
   13600    244.34571   -388.76648    181563.75   -13304.951    1005.1204   -14310.071   -790.19675    114.94328    78.671447    25.123752    16.483116 
   13800    237.96761   -241.33927    181563.75   -13362.949    978.88401   -14341.833   -293.88353    116.36123    78.670474    25.129042    16.502582 
   14000    239.88268   -230.19326    181563.75   -13333.037    986.76167   -14319.799   -233.24442    117.25357    78.671757     25.12806    16.490603 
   14200    235.52588   -490.69146    181563.75   -13375.458    968.83993   -14344.298   -1152.6299    120.42196    78.671702    25.126601    16.504767 
   14400    229.19035    -310.6634    181563.75   -13437.435     942.7786   -14380.213    -529.5429    120.62964    78.674501    25.127434    16.509392 
   14600    239.17156   -303.72789    181563.75   -13411.792     983.8365   -14395.629   -561.89535    120.75521     78.67496    25.131024    16.502884 
   14800    239.27089   -336.77728    181563.75   -13380.184     984.2451   -14364.429   -592.03362     122.0358     78.67824     25.13252    16.474519 
   15000    238.30027    -378.1528    181563.75   -13383.601    980.25244   -14363.854   -755.74922    122.45683    78.678156    25.133457    16.470587 
   15200    227.41154   -386.45224    181563.75   -13422.409    935.46142    -14357.87   -827.91021    123.41069    78.678327    25.133501    16.484893 
   15400    236.24465    -299.8204    181563.75   -13310.989    971.79659   -14282.786   -496.30243    124.05692    78.680759    25.134753    16.457363 
   15600    232.09628   -520.52631    181563.75   -13345.426    954.73221   -14300.158   -1257.4952    124.72489    78.683935    25.133718     16.43985 
   15800     243.0637   -303.52833    181563.75   -13260.231    999.84686   -14260.078   -517.56993     126.6775     78.68214    25.132166    16.436211 
   16000    234.26627   -433.61203    181563.75   -13315.472    963.65848    -14279.13   -986.14725    128.89263    78.681462    25.135075    16.429346 
   16200    249.42061   -484.04884    181563.75   -13225.926    1025.9962   -14251.922   -1134.9768    129.40448    78.681465    25.137832     16.40851 
   16400    240.80244    -380.5278    181563.75   -13219.438    990.54514   -14209.983   -784.56408    130.51931    78.680037    25.139535    16.369438 
   16600    227.41262   -262.17433    181563.75    -13279.84    935.46588   -14215.306   -394.64757    130.96007     78.68345    25.143169    16.396333 
   16800    236.07262   -473.51663    181563.75     -13302.7    971.08892   -14273.788   -1104.2668    131.85189    78.682064    25.143098    16.368454 
   17000    243.71675   -435.54729    181563.75   -13318.878    1002.5332   -14321.411   -1014.6317    132.84149    78.679443    25.144693    16.374362 
   17200    233.74125   -324.90713    181563.75   -13321.484    961.49879   -14282.983   -584.53817    133.29177    78.676281    25.147294    16.393952 
   17400      240.227    -382.8363    181563.75   -13288.081    988.17804   -14276.259   -796.72766    134.25995    78.674732    25.147178    16.417687 
   17600    251.90956   -325.12351    181563.75   -13235.291    1036.2345   -14271.525   -605.10882    134.69419    78.672151    25.148162    16.403131 
   17800    238.17577   -374.28626    181563.75   -13250.223     979.7403   -14229.963   -762.88558    134.77478    78.670798    25.149377    16.418607 
   18000    240.63723   -391.97687    181563.75   -13264.027    989.86554   -14253.893   -862.16628    135.87171    78.670875     25.14954    16.421926 
   18200    236.52504   -279.79708    181563.75   -13255.049    972.94998   -14227.999   -432.82627    137.21381    78.670066     25.14916    16.418748 
   18400    243.19129    -341.7322    181563.75   -13249.678    1000.3717    -14250.05   -699.48676    139.79766    78.668523     25.15113    16.408327 
   18600    240.66858    -333.0839    181563.75   -13217.391    989.99452   -14207.386   -618.93162    141.08441    78.664929    25.150908    16.386951 
   18800    246.35218   -356.19115    181563.75   -13255.101    1013.3741   -14268.475   -681.59552    144.26951    78.662724    25.150577    16.417907 
   19000    240.52611   -295.58682    181563.75   -13249.368    989.40847   -14238.777   -464.26263    145.73144     78.66084    25.151103     16.40073 
   19200    241.51752   -434.78684    181563.75   -13223.381    993.48665   -14216.868   -970.15976    146.87609    78.657015    25.152809    16.403188 
   19400    253.32104   -271.77879    181563.75   -13215.241    1042.0406   -14257.281   -369.30124    146.42927     78.65689    25.150387    16.422392 
   19600    233.75479   -410.22481    181563.75   -13289.471     961.5545   -14251.025   -921.42554    148.38738    78.659912    25.147394     16.41506 
   19800    243.83337    -413.5907    181563.75   -13260.267    1003.0129    -14263.28   -879.39228    150.59661    78.661056    25.143928    16.409741 
   20000      233.184   -298.03304    181563.75   -13276.741    959.20657   -14235.948    -528.7166    151.47506    78.663417     25.14281    16.397953 
   20200     234.5892   -380.92459    181563.75   -13297.166    964.98685   -14262.153   -805.36009     152.9379    78.666309      25.1415    16.406055 
   20400    238.27911   -354.79816    181563.75   -13346.559    980.16536   -14326.725    -694.3435    156.65322    78.669726    25.141431    16.396152 
   20600     242.7306   -174.22018    181563.75     -13297.7    998.47665   -14296.177   -25.611841    158.28865    78.673046    25.140532    16.412166 
   20800    239.26482   -407.28299    181563.75    -13297.14    984.22013    -14281.36   -884.66825    159.80847    78.672952    25.142232    16.396102 
   21000    246.72963   -409.46274    181563.75   -13249.349    1014.9267   -14264.276   -966.09589    162.28546    78.673915    25.142057    16.400027 
   21200    242.12239   -230.25585    181563.75   -13252.857    995.97478   -14248.831   -273.42505    162.33782    78.672702    25.138599    16.387092 
   21400    234.17063   -392.84455    181563.75   -13315.833    963.26506   -14279.098   -821.26346    166.03204    78.671811    25.142217    16.393161 
   21600    237.64915   -257.42712    181563.75   -13267.745    977.57402   -14245.319     -361.968    167.50436    78.674256    25.143383    16.357915 
   21800    237.97026   -466.14575    181563.75     -13258.5    978.89492   -14237.394   -1100.9782    169.27185    78.674588    25.147633    16.355652 
   22000    241.65563   -424.50933    181563.75   -13248.135    994.05475    -14242.19   -990.28975    169.54012      78.6758    25.147683    16.376211 
   22200    243.60668   -464.92436    181563.75    -13248.34    1002.0804   -14250.421   -1066.8363    170.36317    78.675957    25.152202    16.387817 
   22400    243.93506   -275.02743    181563.75   -13257.048    1003.4312   -14260.479   -442.44499    170.72583    78.677515    25.152288    16.394019 
   22600    234.14036   -330.14553    181563.75   -13284.755    963.14055   -14247.896   -610.02082    170.22753    78.676883    25.152497    16.402629 
   22800    240.88749   -478.93205    181563.75   -13252.892    990.89498   -14243.787   -1153.6579    169.30138    78.674737    25.154346    16.395284 
   23000    239.21054   -337.27348    181563.75   -13288.677    983.99685   -14272.674   -649.75754    167.97627    78.672413    25.159069     16.42595 
   23200    240.10547   -480.27585    181563.75   -13302.735    987.67812   -14290.413    -1132.751    167.49811    78.673006    25.162313    16.423589 
   23400    241.87228   -474.34548    181563.75    -13266.03    994.94596   -14260.976   -1143.4853    170.08927    78.669545    25.167343     16.42226 
   23600    243.55295   -374.52658    181563.75    -13333.88    1001.8594    -14335.74   -770.80901    171.80878    78.667208    25.173369     16.41926 
   23800    240.55225   -484.99101    181563.75   -13348.659    989.51599   -14338.175   -1179.7362     172.6418     78.66458    25.169752    16.392073 
   24000    244.52314   -285.35098    181563.75   -13266.658    1005.8503   -14272.508   -447.20813    171.83804    78.664695    25.169893     16.42131 
   24200    240.62564   -265.49004    181563.75   -13266.601    989.81788   -14256.419   -359.11407    174.79689    78.667806    25.169462    16.409102 
   24400     237.6455   -335.55532    181563.75   -13241.277    977.55902   -14218.836   -676.52609     177.9518    78.670698    25.168675    16.422386 
   24600    247.61668    -292.1975    181563.75   -13295.066    1018.5756   -14313.642   -499.55708    177.50844    78.669026     25.16786    16.409594 
   24800     241.6603   -476.35507    181563.75    -13284.68    994.07395   -14278.754   -1139.8654    180.87144    78.669631    25.165257    16.422623 
   25000    237.40911   -303.14505    181563.75   -13301.462    976.58661   -14278.048   -554.75768    181.96824    78.674221    25.163422    16.419875 
   25200    241.56941   -384.81561    181563.75   -13253.024    993.70007   -14246.725   -802.68635    182.86812    78.681121    25.163968    16.399928 
   25400    236.86626   -393.30798    181563.75   -13287.443     974.3536   -14261.797   -843.54867    183.72021    78.677729    25.165527    16.381112 
   25600    237.61221   -395.37205    181563.75   -13235.581    977.42206   -14213.003   -873.05258    185.64444     78.67744    25.165359    16.393907 
   25800    235.70456    -442.8418    181563.75   -13252.223    969.57493   -14221.798   -1067.6548    187.24092    78.675391    25.166374    16.399993 
   26000    234.06004   -351.11645    181563.75   -13293.651    962.81016   -14256.462    -706.8263    187.14922    78.672579    25.169929    16.393314 
   26200    246.71817   -346.10714    181563.75   -13278.559    1014.8796   -14293.439   -650.15283    188.02157    78.673026    25.172855    16.379064 
   26400    234.40914   -376.05503    181563.75   -13328.594     964.2462    -14292.84   -758.14594    190.03046    78.672557    25.171092    16.392656 
   26600    234.24993    -371.8999    181563.75   -13274.386    963.59127   -14237.977   -702.61521    191.24075    78.668494    25.166706    16.403263 
   26800    248.94968   -424.20127    181563.75   -13236.527    1024.0589   -14260.586   -926.53317    190.52526    78.669565    25.168115    16.416715 
   27000    236.84489   -532.09329    181563.75   -13277.174    974.26567    -14251.44   -1350.1816    192.31122    78.668431     25.17112    16.403962 
   27200    247.29503   -529.68949    181563.75   -13218.775    1017.2525   -14236.028    -1344.177    192.48238    78.665495     25.17749    16.434521 
   27400    246.41334   -396.03129    181563.75   -13236.935    1013.6257    -14250.56   -889.87339    190.92447    78.661449    25.180136    16.448161 
   27600    232.77531   -349.19619    181563.75   -13260.644    957.52539   -14218.169   -653.90963    192.97708    78.659887    25.183439    16.434913 
   27800    232.48296    -331.7571    181563.75   -13334.238    956.32282   -14290.561   -665.73935    194.69357    78.661252    25.182911    16.419355 
   28000    235.89739   -310.01895    181563.75   -13276.699    970.36812   -14247.068   -529.00669    193.25612    78.664524    25.181601    16.402832 
   28200     245.8063   -333.03795    181563.75   -13236.172    1011.1286     -14247.3   -624.62291    194.53819    78.664584    25.180671    16.386709 
   28400    236.93633   -407.92232    181563.75   -13246.934    974.64184   -14221.576   -879.19827    197.16702    78.661142    25.183124    16.378716 
   28600    234.56537   -350.04845    181563.75   -13270.932    964.88882    -14235.82    -697.1238    197.14809    78.657591    25.182835    16.389807 
   28800    224.52133   -363.80066    181563.75    -13333.14    923.57251   -14256.713    -738.3618     197.2888    78.659666     25.18211    16.357727 
   29000    236.57067   -435.14256    181563.75   -13314.022    973.13769   -14287.159   -988.37936    198.69971    78.659139     25.18198    16.350989 
   29200    243.02605   -426.71171    181563.75   -13315.162    999.69199   -14314.853   -977.72868    202.57218     78.65946    25.182371    16.352011 
   29400    237.58906   -341.73961    181563.75   -13326.919    977.32685   -14304.245   -672.39716    202.14571    78.659786    25.181219    16.346333 
   29600    236.81168   -373.74242    181563.75   -13345.905    974.12906   -14320.034   -770.57914    202.15658     78.66111     25.18586    16.344927 
   29800    242.64029   -443.97163    181563.75   -13295.782    998.10516   -14293.887   -994.70935    203.72369    78.664854    25.187476    16.336833 
   30000     229.5944   -379.76905    181563.75   -13284.656    944.44066   -14229.096   -796.52255    203.33828    78.669078    25.185428    16.344398 
   30200    240.32535   -404.59943    181563.75   -13335.021    988.58261   -14323.604   -840.77548    206.66629    78.667707     25.18644    16.334256 
   30400    225.99359   -365.24297    181563.75   -13374.994    929.62868   -14304.623   -704.51573    207.33592    78.666838     25.18436    16.349447 
   30600    236.41726   -332.00809    181563.75     -13379.3    972.50663   -14351.806    -575.2296     208.7167    78.669233    25.179987    16.340325 
   30800    236.52179   -309.79459    181563.75   -13334.171    972.93661   -14307.107   -511.90524    209.63914    78.671456    25.177901     16.34373 
   31000     233.5036   -296.03317    181563.75   -13329.462    960.52125   -14289.984   -470.70601    210.93297    78.673165    25.174386     16.35191 
   31200    242.57636   -234.13688    181563.75   -13279.552    997.84218   -14277.395   -259.14241    213.72347    78.670008    25.171456    16.340124 
   31400    246.35442   -522.78447    181563.75    -13302.09    1013.3833   -14315.473   -1266.5932    217.56062    78.670224     25.17139     16.33394 
   31600    247.80745   -380.88705    181563.75   -13257.075    1019.3604   -14276.436   -800.53746    221.13791    78.670849    25.170022    16.302266 
   31800    243.61822   -375.38236    181563.75    -13305.28    1002.1279   -14307.408   -767.82349    223.72056    78.673904    25.170104    16.294957 
   32000    242.22519   -281.11839    181563.75   -13283.681    996.39763   -14280.078   -441.47838    227.64608    78.673433     25.16954    16.282737 
   32200    238.52064    -499.3044    181563.75   -13330.039     981.1589   -14311.198   -1182.2136    229.78644    78.671367    25.170168    16.291436 
   32400    236.77885   -460.57893    181563.75   -13335.723    973.99403   -14309.717   -1091.0808    233.37954    78.669974    25.170702    16.296837 
   32600    238.84425   -421.59445    181563.75   -13303.321     982.4901   -14285.811   -968.17407    236.05385    78.667341    25.169754    16.294383 
   32800    233.15089   -449.57474    181563.75   -13343.217    959.07037   -14302.287   -1033.6206    237.62178    78.668373    25.171978    16.277098 
   33000    242.31869   -285.48773    181563.75   -13296.551    996.78225   -14293.333   -399.97548    236.40729    78.667064    25.171899    16.279138 
   33200    239.96408   -217.99359    181563.75   -13314.843    987.09653    -14301.94    -185.5823    239.47467    78.666643    25.173588     16.28356 
   33400    240.52951   -399.77053    181563.75   -13333.205    989.42244   -14322.628   -850.62248    240.63303     78.66476    25.175257     16.25981 
   33600    234.73238   -341.59289    181563.75   -13361.333    965.57582   -14326.909   -676.09521    242.32054    78.665411    25.175789    16.230296 
   33800    242.84589   -339.35424    181563.75   -13308.957     998.9509   -14307.908   -657.40182    243.63302    78.667432    25.175941    16.240683 
   34000    238.74998   -332.80114    181563.75    -13326.81    982.10232   -14308.912   -598.26878    245.23584    78.665689    25.175823    16.248749 
   34200    239.99615    -366.7889    181563.75   -13363.391    987.22843    -14350.62   -707.66908    246.22503    78.665218    25.174147    16.242773 
   34400    231.25939   -374.07211    181563.75   -13346.202    951.28962   -14297.492   -749.22407    246.05114    78.664415    25.178102    16.249431 
   34600    233.74118   -410.49631    181563.75   -13326.154    961.49851   -14287.652   -877.80413    245.65108    78.666832     25.17713    16.267748 
   34800    238.50665   -249.42241    181563.75   -13308.769    981.10139    -14289.87    -321.8768    246.59025    78.669058    25.174097    16.284744 
   35000    232.60167   -532.77181    181563.75   -13292.363    956.81114   -14249.174   -1341.4051    248.17715    78.670798    25.169138    16.257771 
   35200    250.25747   -290.66981    181563.75   -13276.429    1029.4386   -14305.867   -438.09497    248.03423    78.670943     25.17113    16.266672 
   35400    250.02153   -394.42807    181563.75   -13241.588     1028.468   -14270.056    -851.2824    249.68633    78.670724    25.171082    16.283065 
   35600     240.0128   -365.69549    181563.75   -13304.947    987.29693   -14292.244   -747.36911    250.51736    78.670891    25.171432    16.275414 
   35800      247.931   -356.26666    181563.75   -13275.693    1019.8686   -14295.561   -710.16918     252.9687    78.668763    25.169681     16.26805 
   36000    241.33531   -175.40465    181563.75   -13321.404     992.7371   -14314.141   -47.907926    255.35829    78.668917    25.168881    16.279069 
   36200     238.8213   -454.31052    181563.75   -13341.774    982.39567    -14324.17   -1068.9018     255.8173     78.67002    25.167445    16.293464 
   36400    242.81316    -219.2599    181563.75   -13303.123    998.81627   -14301.939   -237.48877    256.46333    78.670117    25.164635    16.331812 
   36600    231.74516   -216.16711    181563.75   -13338.921    953.28787   -14292.209   -254.56307    255.80073    78.671825    25.166389    16.339206 
   36800    233.36853   -226.69909    181563.75   -13369.746    959.96562   -14329.711   -236.17516    255.63829    78.678168     25.16382    16.333854 
   37000    240.33679   -253.49101    181563.75   -13310.565    988.62966   -14299.195   -310.22688     255.3752    78.679627    25.162157    16.335682 
   37200    235.89251   -494.86499    181563.75    -13364.74    970.34804   -14335.088   -1215.8626    256.24397    78.678756     25.15945    16.359362 
   37400    244.40962   -326.08821    181563.75    -13290.01    1005.3833   -14295.393   -593.00624    257.74377    78.677421       25.158    16.382786 
   37600    250.78009    -237.0872    181563.75   -13265.124    1031.5884   -14296.712   -246.09235    258.13593    78.676904    25.160515    16.360963 
   37800    245.58791   -482.82937    181563.75   -13315.896    1010.2303   -14326.126   -1142.5346    259.79845     78.67908     25.16217    16.361793 
   38000    239.91448   -326.49017    181563.75   -13305.262    986.89249   -14292.155   -627.28978    258.92682    78.681284    25.167097    16.337865 
   38200    234.48847   -466.63439    181563.75   -13274.363     964.5725   -14238.935   -1128.3871    259.68528    78.686377    25.171661    16.341046 
   38400     248.2803   -348.65605    181563.75   -13251.566    1021.3055   -14272.871   -673.90072    260.11636     78.68518    25.175298    16.338206 
   38600    243.14508   -400.42488    181563.75   -13281.544    1000.1817   -14281.726   -853.80066     261.7159    78.686106    25.177247    16.345912 
   38800    234.87121   -362.39739    181563.75   -13278.275    966.14691   -14244.421   -743.48855    263.07899    78.686187    25.173364    16.341383 
   39000    242.52831   -410.90191    181563.75   -13240.152    997.64452   -14237.796   -915.83181    264.45302    78.684107    25.174181    16.341685 
   39200    232.84394   -157.98655    181563.75   -13301.781     957.8077   -14259.588   -15.608253    265.53586    78.680718    25.174396      16.3262 
   39400    235.79488   -294.50463    181563.75   -13233.013    969.94647    -14202.96   -474.94028     268.6373    78.681116    25.170605    16.312366 
   39600    232.19144   -278.14017    181563.75   -13257.213    955.12363   -14212.337   -393.77721    270.72756    78.678296    25.165905    16.308255 
   39800    245.83769   -389.02241    181563.75     -13158.4    1011.2577   -14169.658   -831.45887    269.91567    78.674017      25.1654    16.262293 
   40000    239.46777   -328.93859    181563.75   -13257.238    985.05494   -14242.293   -570.95723    270.57885    78.669893    25.165989    16.240195 
   40200    233.07056   -375.10036    181563.75   -13311.548    958.73989   -14270.288   -780.62619      272.698    78.670866    25.169918    16.213904 
   40400    240.24558   -260.97263    181563.75   -13219.057    988.25448   -14207.311   -358.52976     275.9519    78.670524    25.169553    16.197567 
   40600    238.28545    -470.8554    181563.75   -13374.584    980.19148   -14354.776   -1109.8061    277.11921    78.671292    25.163546    16.205433 
   40800    239.46348   -362.07859    181563.75   -13320.238    985.03729   -14305.275   -686.27233    279.41655     78.67372    25.161266    16.202457 
   41000    242.84977   -219.43046    181563.75   -13286.965    998.96687   -14285.932   -211.64138    280.64203    78.676248    25.163069    16.227869 
   41200    235.64627   -323.16325    181563.75   -13307.356    969.33514   -14276.691   -598.88887    282.68435    78.673851    25.165484    16.254421 
   41400     243.0886   -330.94834    181563.75   -13275.934    999.94932   -14275.883    -602.2237    283.73454     78.67292    25.166234    16.251019 
   41600    250.51475   -343.55792    181563.75   -13257.485    1030.4969   -14287.982   -618.89481    287.47866    78.670595    25.166285    16.231871 
   41800    232.04663   -352.19986    181563.75   -13312.284    954.52795   -14266.812   -699.66445       287.79    78.667993    25.169186     16.23902 
   42000    237.60102    -346.2764    181563.75   -13299.313    977.37604   -14276.689   -705.23181    290.99381    78.670164    25.165504    16.234397 
   42200    243.97593   -331.73165    181563.75   -13280.728    1003.5993   -14284.327   -618.18736    292.94219    78.670273     25.16458    16.244727 
   42400    251.61739   -241.88911    181563.75   -13314.253    1035.0326   -14349.285   -260.42898     293.2795    78.668906    25.168737    16.242727 
   42600    240.23354   -268.44807    181563.75   -13302.951    988.20498   -14291.156   -371.27595    292.12103    78.666759    25.166947    16.232882 
   42800    240.88513   -344.65266    181563.75    -13256.28    990.88529   -14247.165   -649.69517    295.51397    78.669883    25.168696    16.261095 
   43000    239.66443    -398.1485    181563.75   -13233.097     985.8639   -14218.961   -851.31236    296.67268    78.671733    25.170699    16.274648 
   43200    245.51945   -350.37736    181563.75   -13259.533    1009.9487   -14269.481   -639.27786    297.75164    78.671996    25.168492    16.258352 
   43400    240.54719   -390.48902    181563.75   -13304.033    989.49516   -14293.528   -827.86354    299.82627    78.673427    25.166879     16.22673 
   43600    236.23291   -402.71908    181563.75   -13322.548    971.74829   -14294.296   -866.96181    301.06597    78.675755    25.161769     16.23447 
   43800    239.65903     -432.891    181563.75   -13279.631    985.84169   -14265.473   -949.30494    304.79111    78.679031    25.161782    16.228467 
   44000    228.11481   -271.34347    181563.75     -13338.9    938.35434   -14277.254   -382.39093    307.83709    78.679774     25.16087    16.213331 
   44200    242.09067   -365.86777    181563.75   -13265.823    995.84429   -14261.668   -741.21965    309.99013    78.679301    25.158574    16.235499 
   44400    248.19946   -422.51415    181563.75   -13215.478    1020.9729   -14236.451   -921.74198    313.32825    78.679357    25.158961    16.226879 
   44600    239.97819   -375.68776    181563.75    -13289.31    987.15455   -14276.465   -761.60156    314.08757    78.677358    25.157649    16.231754 
   44800    234.61333   -370.93297    181563.75   -13278.724    965.08613    -14243.81   -773.61013     317.9067    78.675183    25.157473    16.220595 
   45000    238.95024   -418.21899    181563.75   -13290.629    982.92609   -14273.555   -920.74894    316.77431    78.675239    25.160189    16.211426 
   45200    247.49284   -448.91332    181563.75   -13205.914    1018.0662    -14223.98   -1019.2067    318.53218    78.676242     25.16178    16.202423 
   45400    250.40472   -364.77084    181563.75   -13205.032    1030.0443   -14235.077   -739.27348    317.26121    78.676502    25.163189    16.202159 
   45600    250.34083   -311.80616    181563.75   -13255.197    1029.7815   -14284.978   -556.75903    314.37245    78.677266    25.160246    16.186489 
   45800    238.97278   -187.94129    181563.75   -13307.577    983.01879   -14290.596   -72.430372    316.22054    78.678974    25.160807    16.186194 
   46000    243.00191   -360.17028    181563.75   -13279.418    999.59272   -14279.011   -695.28773    318.25892    78.678719     25.15706    16.184962 
   46200     247.2416    -247.4052    181563.75   -13263.055    1017.0328   -14280.088   -338.70012    318.19742    78.685126      25.1552    16.192112 
   46400    244.46116   -353.82212    181563.75   -13215.799    1005.5953   -14221.394   -710.94546    323.34542    78.684189    25.154859    16.193428 
   46600    245.17582   -289.47066    181563.75   -13265.104    1008.5351   -14273.639   -450.88474    326.41826    78.680992     25.15512    16.169891 
   46800    244.70021   -344.99392    181563.75   -13257.886    1006.5787   -14264.464   -671.74582    327.12866     78.67536    25.158084    16.162764 
   47000    249.25664   -379.89344    181563.75   -13206.675    1025.3216   -14231.997   -797.47706    329.50141    78.672455    25.162545    16.153382 
   47200    244.56309   -381.13754    181563.75   -13307.132    1006.0147   -14313.147   -806.16141    329.44443    78.669106    25.169024    16.145091 
   47400    246.15047   -330.47713    181563.75   -13286.233    1012.5443   -14298.777   -605.77113    327.39794    78.663313    25.171007    16.170693 
   47600     239.3821   -244.40886    181563.75   -13317.353    984.70256   -14302.056   -306.50777     328.9598    78.662477    25.167505    16.193535 
   47800    240.77742   -421.25718    181563.75   -13320.975    990.44223   -14311.417   -927.32247    332.07044    78.664311    25.164086    16.188182 
   48000     237.7643   -232.84739    181563.75   -13315.679    978.04772   -14293.726   -265.54729    334.09695    78.664135    25.162487    16.182312 
   48200    240.32119   -470.65466    181563.75   -13307.163    988.56549   -14295.728   -1125.4447    334.50295    78.659517    25.166351    16.176488 
   48400    237.55211   -209.44262    181563.75   -13322.406    977.17484   -14299.581   -196.20933    336.82599    78.655776    25.166474    16.182621 
   48600    243.81917   -345.11295    181563.75   -13291.933    1002.9545   -14294.888   -691.15051    337.51349    78.653265    25.168353    16.198519 
   48800    243.03746   -410.40001    181563.75   -13298.844    999.73891   -14298.583   -887.23061    333.33229    78.654212    25.167051    16.193786 
   49000     242.6891   -337.44925    181563.75   -13254.748    998.30597   -14253.054   -662.48157     332.5689    78.656733    25.166146    16.208964 
   49200     244.3087   -468.27013    181563.75   -13265.774    1004.9682   -14270.742   -1106.5741    334.46144     78.65762    25.166058    16.208877 
   49400    245.29943   -305.75655    181563.75    -13263.45    1009.0436   -14272.494   -555.15133     333.1777    78.655251    25.165907    16.236335 
   49600    236.03405   -377.73844    181563.75   -13292.937    970.93027   -14263.868   -813.08035    332.41196    78.655165    25.166774     16.25786 
   49800    233.46086   -397.33023    181563.75   -13302.914    960.34543    -14263.26   -873.51934    331.20126    78.652286    25.164349    16.280887 
   50000    238.37911   -470.71895    181563.75   -13304.492    980.57671   -14285.069    -1115.544    329.14945    78.650779    25.164077    16.282024 
   50200    242.32332   -365.84004    181563.75   -13246.803    996.80131   -14243.604     -756.169    329.40194    78.649808    25.161432    16.297761 
   50400    244.15998   -321.69466    181563.75   -13285.491    1004.3564   -14289.848   -585.69006    330.92756    78.647691    25.162437    16.332832 
   50600    225.14969   -254.16416    181563.75   -13351.202    926.15729    -14277.36   -329.52531    331.87468    78.648031    25.165928    16.348731 
   50800     236.0866   -276.37312    181563.75   -13323.376    971.14644   -14294.522   -451.42394    332.60944    78.647632    25.165456    16.366634 
   51000    238.99136    -453.3957    181563.75   -13217.185    983.09523    -14200.28   -1032.6024    332.28751    78.644255    25.166481    16.367945 
   51200    232.29173   -379.44618    181563.75   -13302.839    955.53618   -14258.375   -761.47987    331.03713    78.645605    25.166568    16.366241 
   51400    242.90804   -295.99056    181563.75   -13267.333    999.20655    -14266.54   -488.65667    330.16606    78.645672    25.165702    16.357417 
   51600    233.73633   -411.16221    181563.75   -13273.102    961.47855    -14234.58   -893.13797    332.50709    78.644535    25.163815    16.352853 
   51800    242.67003   -395.83945    181563.75   -13251.885    998.22752   -14250.112   -820.44105    331.83486    78.641436    25.163298    16.366435 
   52000    240.95139   -311.58167    181563.75    -13299.63    991.15784   -14290.788   -530.24602    331.68145    78.638358     25.16157    16.334829 
   52200    235.97578   -412.67168    181563.75   -13271.094     970.6906   -14241.784   -934.40405    334.88835    78.634853    25.160063    16.362928 
   52400    238.46769   -359.42158    181563.75   -13263.384    980.94111   -14244.325   -755.63471    334.18693    78.631385     25.15829    16.345891 
   52600    240.28966   -431.75329    181563.75   -13263.485     988.4358   -14251.921   -961.13534    336.57984    78.630906    25.159824    16.332945 
   52800    236.78445   -422.04103    181563.75   -13361.344    974.01707   -14335.361    -955.4759    338.07593    78.630618    25.153128    16.334003 
   53000    233.12811    -228.6124    181563.75   -13380.673    958.97665    -14339.65   -259.57212    338.95164    78.629108    25.152359    16.327928 
   53200    242.30948   -368.70106    181563.75   -13337.985    996.74437   -14334.729   -765.41881    339.50267    78.628697    25.154893    16.328152 
   53400    232.59757   -370.09819    181563.75   -13326.993    956.79427   -14283.787   -735.87977    339.98986     78.62744    25.153948    16.328717 
   53600    246.03753   -396.96879    181563.75   -13272.101    1012.0798   -14284.181   -857.71562    340.07719    78.624386      25.1504    16.339888 
   53800    241.39655   -351.00067    181563.75   -13304.534    992.98904   -14297.523   -717.50628    341.28951    78.623566    25.149136    16.365356 
   54000    241.05893   -245.36411    181563.75   -13240.822    991.60023   -14232.423   -338.48129    341.54261    78.626555    25.151227    16.371404 
   54200    229.43717   -489.01341    181563.75   -13326.676    943.79391   -14270.469   -1198.8692    344.11422    78.620332    25.150781    16.379161 
   54400    235.83971   -384.48863    181563.75   -13299.643    970.13086   -14269.773   -810.08153    345.46966    78.623255    25.151215    16.381936 
   54600    240.18454   -350.95225    181563.75   -13256.175    988.00338   -14244.179   -670.32186     347.7594    78.621268    25.154022    16.366452 
   54800    250.90397   -346.72309    181563.75   -13236.503    1032.0979   -14268.601   -645.20808    347.76269     78.61964    25.155524    16.358543 
   55000    236.37277    -370.9393    181563.75    -13295.07     972.3236   -14267.394   -758.52634     349.8103     78.62267    25.155033    16.366154 
   55200     237.2526   -422.64648    181563.75   -13261.295    975.94282   -14237.238   -964.30558    351.30784    78.623451    25.155917    16.375743 
   55400    238.72947   -268.42487    181563.75   -13223.924    982.01794   -14205.942    -409.1024    354.49094    78.621045    25.151655    16.392959 
   55600    236.24731   -455.52096    181563.75   -13249.148    971.80753   -14220.955   -1087.8881    354.72978    78.623608    25.154874     16.37384 
   55800    225.18866   -332.86604    181563.75   -13301.584    926.31756   -14227.901   -625.05069    354.39998    78.623183    25.157868    16.366963 
   56000     235.1017   -342.72217    181563.75   -13325.009    967.09506   -14292.104   -670.52915    357.30751    78.629825    25.157225    16.367795 
   56200    244.05644   -320.43591    181563.75   -13258.967    1003.9305   -14262.898   -577.51894    355.74457    78.629582    25.158637    16.340434 
   56400    235.68389   -287.46368    181563.75   -13261.037     969.4899   -14230.526    -521.7813    358.68672     78.63422    25.159309    16.342957 
   56600    233.20889   -489.70739    181563.75   -13332.539    959.30892   -14291.848   -1213.8116    360.05224    78.636853    25.163387    16.340211 
   56800    228.90051   -459.74694    181563.75   -13375.527    941.58634   -14317.114   -1056.2975    360.27218    78.637281    25.165337    16.311601 
   57000    230.99994   -311.83694    181563.75    -13363.43    950.22237   -14313.652   -500.45006    361.65772    78.634074    25.165072    16.296566 
   57200    234.74944   -403.55692    181563.75   -13359.268    965.64603   -14324.914   -868.72454    362.48383    78.633798    25.162927    16.323719 
   57400    235.57086   -389.22322    181563.75    -13332.31    969.02496   -14301.335   -784.76948     362.4405     78.63466    25.163824    16.308647 
   57600    252.23775   -415.53856    181563.75   -13227.982    1037.5845   -14265.566   -916.59822    362.96773    78.635002    25.163688    16.325421 
   57800    239.97669   -302.86024    181563.75   -13267.618     987.1484   -14254.767   -513.31716     361.2043    78.638185    25.165674     16.31509 
   58000    246.44017   -297.46549    181563.75   -13247.933    1013.7361   -14261.669   -510.95859    361.63507    78.636719    25.163989    16.333746 
   58200    239.49078   -284.26733    181563.75   -13285.086    985.14962   -14270.236   -450.83707    361.55002    78.637392    25.162458    16.335878 
   58400    233.09318   -471.22967    181563.75   -13279.259    958.83295   -14238.092    -1115.727    365.36167    78.637257    25.162009    16.322707 
   58600    238.78298   -305.55744    181563.75   -13270.186    982.23804   -14252.424   -540.55259    365.58482    78.637078     25.16352    16.323183 
   58800    238.37806   -293.06293    181563.75   -13286.737     980.5724    -14267.31   -483.12817    367.18228    78.638057    25.161569    16.324532 
   59000    242.26514    -525.2447    181563.75    -13296.24      996.562   -14292.802   -1252.9756    368.86517    78.638147    25.163792    16.336797 
   59200     234.1995   -414.23486    181563.75   -13259.579    963.38382   -14222.962   -934.29416    371.27612    78.635987    25.163829    16.350392 
   59400    239.49476   -322.56131    181563.75   -13247.724    985.16599    -14232.89   -605.66418    373.00433    78.636871    25.166333    16.351766 
   59600    246.12301   -415.36919    181563.75   -13204.888    1012.4314    -14217.32   -978.24998    373.30317    78.633954    25.166093    16.327806 
   59800    238.63826   -300.18296    181563.75   -13206.004    981.64273   -14187.647   -514.42753    373.58423    78.631007    25.165942    16.353125 
   60000    234.68283   -479.50854    181563.75   -13239.982    965.37203   -14205.354    -1172.674    375.84748    78.629122    25.165817     16.34261 
   60200    240.53388   -283.59406    181563.75   -13177.033    989.44043   -14166.473   -458.60567    379.46259    78.630539    25.165858    16.334988 
   60400    235.77584   -293.54608    181563.75   -13264.395    969.86814   -14234.263   -459.79118    381.16702    78.632305    25.164905    16.295632 
   60600      244.875   -397.52805    181563.75    -13259.62    1007.2977   -14266.917   -840.75558    386.43101    78.631377    25.161966     16.30748 
   60800    239.25282   -432.37747    181563.75   -13307.629    984.17076     -14291.8    -978.4772    387.47512    78.629015    25.162178    16.293746 
   61000    233.24639   -393.12188    181563.75   -13333.421    959.46321   -14292.884   -812.55216    389.15343    78.630814    25.163753    16.327339 
   61200    235.01161   -131.89951    181563.75   -13307.023    966.72444   -14273.748    65.497585    386.05389    78.629616    25.160649    16.355481 
   61400    233.64471   -437.34367    181563.75   -13304.952    961.10169   -14266.053   -992.90181    387.71127    78.628409     25.16035    16.325503 
   61600    244.53553   -255.65307    181563.75   -13310.284    1005.9013   -14316.185   -393.69152    386.88092    78.629134    25.158397    16.299845 
   61800     236.0109   -401.02001    181563.75   -13275.946    970.83504   -14246.781   -851.52622    386.96463    78.632234    25.159516     16.28697 
   62000    231.96405   -240.40156    181563.75    -13306.16    954.18828   -14260.348   -289.37456    385.85419     78.63601    25.156588    16.293532 
   62200    242.11755   -439.28514    181563.75   -13231.281    995.95488   -14227.236   -978.07656    386.78109    78.641263    25.160302    16.265641 
   62400    243.04252   -329.20621    181563.75   -13243.892    999.75975   -14243.652    -639.1167    386.45607     78.64116     25.16062    16.249811 
   62600    239.53876   -419.35748    181563.75   -13309.642    985.34696   -14294.989   -956.65902    388.88266    78.638115    25.161626    16.230133 
   62800    247.53086    -338.7078    181563.75   -13323.278    1018.2226     -14341.5   -590.80454    392.88216     78.63635    25.164447     16.21989 
   63000    246.40977   -307.90338    181563.75    -13292.03     1013.611   -14305.641   -498.86797    391.38831    78.633949    25.163069    16.227923 
   63200    240.92759   -196.16304    181563.75    -13359.37    991.05993    -14350.43   -117.36535    390.56401    78.632416    25.156737     16.22615 
   63400    238.71853   -404.09044    181563.75   -13307.075    981.97295   -14289.048   -827.53058    390.94859    78.633117    25.152625    16.249116 
   63600     243.6563   -284.04126    181563.75   -13259.177    1002.2845   -14261.461   -425.15225    388.24128    78.634908     25.14995    16.261504 
   63800    243.17846   -396.33499    181563.75   -13275.941    1000.3189    -14276.26   -834.75121     387.8298     78.63357    25.149776    16.251377 
   64000    242.74549   -403.64386    181563.75   -13290.917    998.53791   -14289.455   -905.41134    391.65049    78.638117     25.14769    16.248195 
   64200      240.453   -257.55254    181563.75   -13273.747    989.10771   -14262.855   -319.03751    391.81821     78.64103    25.144459    16.212811 
   64400    245.99567   -260.99289    181563.75   -13267.617    1011.9076   -14279.525   -377.91363    391.56947    78.645035    25.139253    16.245084 
   64600    243.96123   -260.46963    181563.75   -13278.471    1003.5389    -14282.01   -365.62389    390.17258    78.648417     25.13692    16.261044 
   64800    240.51158   -402.27108    181563.75   -13271.006    989.34867   -14260.354   -945.63379    389.82154    78.648371    25.136645    16.274844 
   65000    227.03318   -276.77017    181563.75   -13334.101    933.90506   -14268.006   -442.21475    389.03948    78.648392    25.135161    16.251585 
   65200    236.08735   -424.80673    181563.75    -13341.59    971.14951   -14312.739    -978.4781    392.13625      78.6487    25.137202    16.260112 
   65400    246.22333   -241.06644    181563.75   -13203.672    1012.8441   -14216.516   -310.13356    393.91767    78.646393    25.139451    16.251255 
   65600    241.59927   -298.33186    181563.75   -13259.337    993.82293    -14253.16   -555.57028    396.02583    78.645322    25.143516     16.24555 
   65800    247.15351   -347.12573    181563.75   -13227.559    1016.6704   -14244.229   -680.65002     397.3857    78.644505     25.15037    16.244033 
   66000    237.36467   -548.62157    181563.75   -13307.982    976.40381   -14284.385     -1395.28    400.12207    78.646661    25.150083    16.225181 
   66200    236.06517   -248.69042    181563.75   -13293.391     971.0583    -14264.45   -306.26781    400.78761    78.645285    25.150924    16.240178 
   66400    239.21093   -462.10918    181563.75    -13342.79    983.99845   -14326.789   -1054.2576    400.37931    78.644174    25.154744    16.238517 
   66600    234.93643   -374.36572    181563.75   -13321.439    966.41522   -14287.854   -811.75775    402.50018    78.642136    25.156469    16.246927 
   66800    234.34437   -303.48886    181563.75   -13336.232    963.97974   -14300.212   -500.08905    401.66353    78.642486    25.157752    16.276587 
   67000    223.39832   -233.35149    181563.75   -13366.481    918.95297   -14285.434   -251.23649    402.44778    78.643449    25.155641    16.296222 
   67200    236.30833   -473.29957    181563.75   -13360.022    972.05853   -14332.081   -1149.7929    404.91373    78.645174    25.153805    16.295921 
   67400    237.98491   -333.01044    181563.75   -13286.924    978.95518   -14265.879   -591.57067    403.68874    78.643775    25.154465    16.304938 
   67600    231.09609   -286.63011    181563.75    -13334.06    950.61789   -14284.678   -472.49925    404.45937    78.643031    25.156905    16.297809 
   67800    242.46726   -332.22749    181563.75   -13307.307     997.3934   -14304.701   -637.13778    404.58155    78.642233    25.158581    16.294152 
   68000    244.80133   -307.04636    181563.75    -13281.13    1006.9947   -14288.125   -514.75175    408.19927    78.644383    25.158325    16.280119 
   68200    241.61739   -294.95326    181563.75   -13273.626    993.89746   -14267.523   -462.41946    411.91917    78.648031    25.158396    16.276052 
   68400    236.58129   -313.72215    181563.75    -13205.27    973.18137   -14178.451   -545.59145    414.21752     78.64734      25.1568     16.27253 
   68600    236.17047   -228.55326    181563.75   -13287.682    971.49143   -14259.173   -277.71911     414.2979    78.645363     25.15622    16.278585 
   68800    244.28892   -412.08947    181563.75   -13220.246    1004.8868   -14225.132   -915.46184    417.75671    78.646428    25.156216    16.267612 
   69000     245.2327   -314.65789    181563.75   -13222.456    1008.7691   -14231.225   -542.90576    416.42266    78.644252    25.154967    16.295933 
   69200    239.78242   -398.81285    181563.75    -13257.48    986.34927   -14243.829   -900.50178    417.42226    78.645015    25.154894    16.279536 
   69400    237.51464   -486.98045    181563.75   -13314.871     977.0207   -14291.892    -1168.243    419.66663    78.644635    25.153292    16.270792 
   69600    244.87173    -404.9064    181563.75   -13290.684    1007.2842   -14297.968   -918.42342    421.17107    78.647334    25.156555    16.281807 
   69800     240.1607   -270.75217    181563.75    -13285.69    987.90533   -14273.596   -401.29401    421.41048    78.648041     25.15458    16.244787 
   70000    235.66282   -247.70841    181563.75   -13339.225    969.40322   -14308.628   -312.32383    422.45123    78.648293    25.159547    16.227457 
   70200    237.00882   -258.89105    181563.75   -13301.312    974.94001   -14276.252   -351.53786    420.69152    78.646049    25.158374    16.230629 
   70400    234.05129   -500.20565    181563.75   -13260.618    962.77416   -14223.392   -1214.4931    422.22138    78.643226    25.158093    16.244728 
   70600    248.42844   -341.22775    181563.75   -13258.389    1021.9148   -14280.304   -622.12793     424.4541    78.643922    25.161986    16.299782 
   70800    240.03877   -419.45511    181563.75   -13283.821    987.40376   -14271.225   -896.17031    424.81374    78.646763    25.164078    16.291745 
   71000    240.06767   -563.06096    181563.75    -13241.84    987.52264   -14229.362   -1488.2088    425.91706     78.64875    25.165321     16.30751 
   71200    248.25602   -474.31929    181563.75   -13144.882    1021.2056   -14166.087   -1095.7714    427.73254    78.647508    25.170212    16.299168 
   71400    237.93263    -337.9747    181563.75   -13260.283    978.74012   -14239.023      -606.74     427.3249    78.645698    25.172922    16.306874 
   71600    230.97319      -451.06    181563.75   -13273.343    950.11234   -14223.455   -1025.9626    428.29647    78.644088     25.17541    16.324682 
   71800     241.0976   -355.01497    181563.75   -13269.317    991.75928   -14261.076   -625.20205    431.76006    78.640328    25.174413    16.300934 
   72000    243.96158   -364.12189    181563.75   -13208.023    1003.5403   -14211.563   -730.88373    436.78864    78.637026    25.173484    16.302567 
   72200    241.19483   -315.17848    181563.75   -13246.855    992.15923   -14239.015   -574.36867    438.57647    78.640382    25.174209    16.295667 
   72400    246.03456   -314.88519    181563.75   -13238.865    1012.0675   -14250.933   -565.83959    437.31577    78.642619    25.170993    16.290454 
   72600    245.29328   -324.54942    181563.75   -13255.558    1009.0183   -14264.576    -547.3311    439.11247    78.641614    25.171617    16.265527 
   72800    234.42173   -329.42279    181563.75   -13337.827    964.29798   -14302.125   -660.22341    438.15623    78.641814    25.171322    16.267123 
   73000    243.12833   -336.00894    181563.75   -13310.418    1000.1127    -14310.53   -616.72254    442.03385    78.638412     25.17279    16.260108 
   73200    245.83224   -450.30243    181563.75   -13247.372    1011.2353   -14258.607   -993.35876     443.2959    78.639697    25.169903      16.2781 
   73400    238.92455   -251.64648    181563.75   -13275.858    982.82042   -14258.678   -317.52594    448.22057    78.639377    25.169579    16.272063 
   73600    242.84791    -346.8285    181563.75   -13260.293    998.95921   -14259.252   -683.71436     448.2167    78.636743     25.16704    16.277967 
   73800    251.13654    -125.2241    181563.75   -13215.504    1033.0547   -14248.559    82.171016     448.7967    78.640982    25.169121    16.288512 
   74000    247.44135   -338.52863    181563.75   -13210.406    1017.8544    -14228.26   -675.54379    449.82708    78.636899    25.172706    16.257175 
   74200    251.26266   -415.40611    181563.75   -13179.653    1033.5734   -14213.227   -909.37981     448.9429       78.638    25.172714    16.271017 
   74400    240.99071   -440.58828    181563.75   -13232.589     991.3196   -14223.909   -997.51427    444.89258    78.642327    25.178518    16.276265 
   74600    240.08257   -349.51036    181563.75   -13270.636    987.58396    -14258.22   -672.25628    446.10375    78.644735    25.179957     16.29782 
   74800    242.29858   -516.90773    181563.75   -13248.145    996.69953   -14244.844   -1288.9855    446.93881    78.648901    25.185144    16.294418 
   75000    242.26383   -447.58799    181563.75   -13269.231    996.55661   -14265.787   -990.14818    446.21347    78.652907    25.191539    16.283206 
   75200    237.10819   -239.04668    181563.75   -13310.633     975.3488   -14285.982   -277.32774    442.49873    78.654645    25.194201     16.28885 
   75400    243.14076   -329.91986    181563.75   -13265.346    1000.1639    -14265.51     -619.715     442.5605    78.654794    25.194002    16.284053 
   75600    235.05501   -463.65773    181563.75   -13311.793    966.90298   -14278.696   -1053.8492    445.54752    78.655499    25.196725    16.279717 
   75800    244.98289   -279.98111    181563.75   -13281.804    1007.7415   -14289.546   -437.79611    447.59972    78.653154    25.201286    16.268792 
   76000    239.86969   -328.44174    181563.75   -13288.174    986.70826   -14274.882   -529.85598    452.07479    78.649311    25.200343    16.259601 
   76200    233.03598    -225.8375    181563.75   -13347.377    958.59767   -14305.974   -249.47457    452.86845    78.648596    25.201138    16.238129 
   76400    228.11768   -415.58685    181563.75   -13342.919    938.36617   -14281.285   -872.92237    452.41446    78.649823    25.204032    16.233455 
   76600    238.97171   -467.39032    181563.75   -13295.058     983.0144   -14278.072   -1075.2028    450.44085    78.649793    25.202911    16.249105 
   76800    237.48192   -253.53776    181563.75   -13257.597    976.88614   -14234.483   -361.55674    449.83404    78.648051    25.204819    16.273032 
   77000     236.8323   -318.11593    181563.75   -13283.312    974.21389   -14257.526   -623.27925     453.0811    78.647367    25.204011    16.273933 
   77200    242.02754   -287.94824    181563.75   -13254.192    995.58459   -14249.777   -466.99644    454.61684    78.651045     25.20525     16.26596 
   77400    242.85672   -305.90718    181563.75   -13259.183    998.99544   -14258.178   -481.62454    452.83471    78.651406    25.205753    16.287431 
   77600    243.17853    -371.1722    181563.75   -13269.357    1000.3192   -14269.676   -753.23123    453.11565    78.652344    25.212349    16.277946 
   77800    236.45958   -276.29141    181563.75   -13267.684    972.68072   -14240.365    -411.8272    455.92685    78.652628     25.21347    16.308343 
   78000    235.12711   -298.58344    181563.75    -13322.25    967.19957    -14289.45   -524.97327    460.13743    78.654511    25.212625    16.307286 
   78200    239.17519   -492.60207    181563.75    -13249.15    983.85141   -14233.001   -1201.6622    461.06923    78.653882    25.213402      16.3061 
   78400    248.13194   -407.55701    181563.75   -13285.183    1020.6952   -14305.878   -855.71536    461.43427    78.651177    25.213315    16.293254 
   78600     237.4065   -454.68067    181563.75    -13365.12    976.57587   -14341.696   -1077.3195    457.84846    78.650223    25.211787    16.298384 
   78800    242.30939   -339.06429    181563.75   -13357.302    996.74401   -14354.046   -686.54508    457.49469    78.649617    25.210549    16.281613 
   79000    237.09452   -456.97153    181563.75   -13317.013    975.29255   -14292.305   -1080.5571    455.47364    78.649753    25.212433    16.277877 
   79200    235.26476   -299.21865    181563.75   -13251.286    967.76579   -14219.052   -498.55436    453.08109    78.648535    25.209735    16.290438 
   79400    238.81911   -433.99234    181563.75   -13286.299    982.38669   -14268.686   -967.25364    455.69643    78.647164    25.204607    16.289227 
   79600    245.26303   -478.91505    181563.75   -13254.541    1008.8938   -14263.435   -1115.5298    457.74348    78.650166     25.20089    16.310375 
   79800    238.08597   -346.93877    181563.75   -13272.335    979.37091   -14251.706   -651.27069    460.08741    78.651596    25.203425    16.300623 
   80000     237.7415   -268.16071    181563.75   -13275.343    977.95389   -14253.297   -399.96842    459.32688    78.652862    25.207001    16.285596 
   80200    245.89566    -575.1912    181563.75   -13221.111    1011.4962   -14232.607   -1481.6736    462.05133    78.653721    25.208041    16.271483 
   80400    237.04575    -232.5655    181563.75   -13260.043    975.09194   -14235.135   -266.68841    463.07068    78.655421    25.207572    16.285683 
   80600    248.08649   -129.76795    181563.75   -13209.823    1020.5082   -14230.331    93.925767    464.87665    78.657973    25.199994    16.300269 
   80800    244.34254   -452.08858    181563.75   -13258.749    1005.1074   -14263.856   -1036.0882    467.97106    78.657618    25.201066    16.324343 
   81000    237.14646   -184.08805    181563.75   -13213.399     975.5062   -14188.905   -149.07826    470.41903    78.656096    25.200386    16.343812 
   81200    242.46015   -480.90868    181563.75    -13265.18    997.36414   -14262.544    -1180.342    471.91274    78.656984    25.206071    16.359111 
   81400    242.24312   -290.58601    181563.75   -13298.532    996.47141   -14295.004   -475.10664    469.78576    78.655226    25.206265     16.37194 
   81600    239.65602   -398.36196    181563.75   -13250.807    985.82931   -14236.637   -846.84762    471.58322    78.653536    25.210955    16.319682 
   81800    242.33821   -427.45486    181563.75   -13236.541    996.86257   -14233.404   -974.01517    471.89699     78.65299    25.217633    16.315674 
   82000    240.38987   -292.37015    181563.75   -13240.566    988.84801   -14229.414   -488.87922    473.91597    78.652061    25.221798    16.321364 
   82200    240.40404   -462.14572    181563.75   -13280.357    988.90631   -14269.264   -1091.6328    477.11718    78.656174    25.227246    16.342218 
   82400    233.81358   -354.49678    181563.75   -13316.545    961.79632   -14278.341   -679.43943     477.4549    78.654456     25.23335    16.326713 
   82600    241.12859   -259.29565    181563.75   -13303.918    991.88675   -14295.805   -348.18515    478.28595     78.65464    25.236161    16.340578 
   82800    245.16893   -293.26617    181563.75   -13263.605    1008.5068   -14272.112   -479.58575    479.62885      78.6519    25.237823    16.362496 
   83000     248.4811   -235.27341    181563.75    -13248.68    1022.1314   -14270.811   -276.43508      482.121    78.655337    25.240545    16.319424 
   83200    240.95182   -302.57073    181563.75   -13270.542    991.15962   -14261.701   -522.85216    480.55803    78.656309    25.241612    16.297766 
   83400    240.40584   -280.71311    181563.75   -13297.322    988.91371   -14286.236    -411.7557    479.56105    78.654128    25.241333    16.316554 
   83600    245.05443   -380.39306    181563.75   -13261.992    1008.0358   -14270.028   -746.79693    482.14508    78.652326    25.240713    16.338258 
   83800     237.5446   -399.43268    181563.75   -13331.528    977.14396   -14308.672   -820.14009    484.65861    78.654009    25.242291    16.326614 
   84000    225.37915    -556.1119    181563.75   -13318.734    927.10117   -14245.835    -1410.586    485.07362    78.656178    25.243758    16.287892 
   84200    231.36681   -352.82387    181563.75   -13312.833    951.73151   -14264.564   -717.67325    482.16316    78.653722     25.25024    16.293173 
   84400    241.57252   -466.25172    181563.75   -13270.087    993.71289   -14263.799   -1065.0634    486.92202     78.65437    25.250808    16.291244 
   84600    240.47618    -401.9679    181563.75    -13263.84    989.20308   -14253.043   -831.80775    490.40306    78.659097    25.251879    16.331751 
   84800    239.70121   -364.22227    181563.75   -13311.687    986.01521   -14297.703   -717.19349     493.1421    78.662722    25.255223    16.338758 
   85000    235.21088   -505.33548    181563.75   -13311.227    967.54416   -14278.772   -1235.4379     493.8537    78.662333    25.255828    16.338572 
   85200    246.17469   -407.25691    181563.75    -13202.86     1012.644   -14215.504   -901.97277    494.53293    78.665336    25.260957    16.328266 
   85400    242.44055   -299.22186    181563.75   -13284.738    997.28353   -14282.021    -505.8987    494.15782    78.661063    25.263054    16.343169 
   85600    243.59132   -646.46823    181563.75   -13296.087    1002.0173   -14298.104   -1765.9942    497.01201     78.65785    25.263466    16.350932 
   85800    239.18383   -296.45352    181563.75   -13260.233    983.88694    -14244.12   -581.30939    495.03657    78.657761    25.264497    16.362556 
   86000    237.97878   -313.44316    181563.75   -13232.401    978.92998   -14211.331   -586.04339      496.462    78.655266     25.26607    16.359016 
   86200    242.58136   -373.06864    181563.75   -13274.498    997.86276   -14272.361   -812.67624    499.70128    78.653884    25.266022    16.342737 
   86400    233.87181   -355.59931    181563.75   -13295.091    962.03587   -14257.126   -681.01342    500.57353    78.654256    25.268749    16.343577 
   86600    240.88035   -251.29523    181563.75   -13315.672    990.86564   -14306.537   -357.55503    501.03541    78.655827    25.272331    16.321104 
   86800    230.92602   -445.02277    181563.75   -13315.714     949.9183   -14265.632   -1086.9351    504.93884    78.659122    25.271282    16.318329 
   87000    242.46239   -269.19238    181563.75   -13339.211    997.37337   -14336.584    -386.3447    506.42483    78.661039    25.273295    16.312418 
   87200    239.57857   -332.24288    181563.75   -13318.396    985.51072   -14303.907    -636.6272    508.65043    78.658806    25.273565    16.320829 
   87400    242.96507   -523.14544    181563.75   -13318.106    999.44115   -14317.547   -1294.1807    510.91401    78.654751     25.27072    16.313459 
   87600    242.47756   -402.25897    181563.75   -13301.959    997.43576   -14299.395   -897.09016    513.84217    78.653304    25.269095    16.304399 
   87800    230.82802   -372.27593    181563.75   -13327.238    949.51518   -14276.753    -704.8542    512.22145    78.649405    25.270427    16.302287 
   88000     241.6887   -464.48787    181563.75    -13239.06     994.1908   -14233.251   -1034.3853    513.65268    78.648233    25.267091    16.298402 
   88200    238.61199   -337.88603    181563.75    -13224.54    981.53469   -14206.075   -610.49662    512.45011    78.647551    25.264275    16.309935 
   88400    242.41061   -388.19953    181563.75   -13260.511    997.16038   -14257.672   -819.69482    510.70244    78.648328    25.260912    16.316548 
   88600    235.95743   -399.43657    181563.75    -13329.81     970.6151   -14300.425   -859.64224    508.58251    78.648704    25.256473     16.34249 
   88800    234.50867   -220.97663    181563.75   -13356.375    964.65559   -14321.031   -203.20749    507.77135    78.650113    25.257964    16.363484 
   89000    230.84017   -276.11335    181563.75   -13382.075    949.56515    -14331.64   -407.77898    509.51232    78.650818    25.256583    16.352386 
   89200    230.69798   -359.81754    181563.75   -13384.248    948.98025   -14333.228   -687.75519    511.59958     78.64902    25.259527    16.355491 
   89400    234.06418    -464.1292    181563.75   -13323.092    962.82719   -14285.919   -1102.4124    512.96007    78.647233    25.259921     16.37119 
   89600    233.20266   -404.85777    181563.75   -13367.902    959.28332   -14327.185   -887.64402    515.93318    78.647499    25.261039    16.394788 
   89800    242.10884   -392.82548    181563.75   -13280.817    995.91904   -14276.736   -783.56034    515.89559    78.649535    25.259031    16.401183 
   90000    239.62664   -447.32535    181563.75   -13232.848    985.70845   -14218.557   -990.78055    518.65101    78.652011    25.260802    16.413384 
   90200    235.93753   -409.10729    181563.75   -13287.877    970.53323   -14258.411   -927.64759    518.73406    78.651139    25.259776    16.427793 
   90400    233.46844    -239.5729    181563.75    -13340.06    960.37661   -14300.437   -222.38834    518.15842    78.653448    25.258386    16.442992 
   90600     246.6487   -253.29107    181563.75   -13245.676    1014.5938   -14260.269   -286.46921    518.84576    78.652491    25.257336    16.441516 
   90800    246.69128   -252.77183    181563.75   -13252.747     1014.769   -14267.516   -305.69984    520.43262    78.653491    25.260754    16.428101 
   91000    237.51287   -471.68229    181563.75   -13283.772    977.01343   -14260.786   -1094.2629    519.03887    78.652589    25.263401    16.437396 
   91200    234.64254   -311.91049    181563.75   -13305.429    965.20627   -14270.635    -576.3916    515.73522    78.651431    25.270063    16.440199 
   91400    237.53812   -364.67343    181563.75   -13340.862    977.11729    -14317.98   -735.92947    517.08417    78.649914     25.27372    16.446646 
   91600    252.33835   -298.49603    181563.75   -13264.716    1037.9983   -14302.714   -494.97277    517.74218      78.6489    25.277708    16.457958 
   91800    242.22884   -484.68916    181563.75   -13269.159    996.41265   -14265.571   -1170.1982    518.41843    78.646871    25.280781    16.484446 
   92000    247.94604   -451.12097    181563.75   -13257.084    1019.9305   -14277.014   -1053.6469    519.03254     78.64418    25.281037    16.485766 
   92200    233.68668   -512.13927    181563.75   -13291.295    961.27433    -14252.57   -1270.5492    519.08481    78.642591    25.284714    16.483022 
   92400    238.86596   -302.67378    181563.75   -13243.521    982.57938   -14226.101   -520.66621    517.74973    78.642666    25.288233    16.480821 
   92600    237.25034   -379.89779    181563.75   -13305.448     975.9335   -14281.382   -792.84814    519.84378    78.645283    25.289679    16.460807 
   92800    236.29315   -460.99828    181563.75   -13359.636    971.99608   -14331.632   -1088.3425    519.37116    78.646366    25.295741    16.449512 
   93000    231.12151   -446.84813    181563.75   -13368.047    950.72248    -14318.77   -971.98267    521.40929    78.645798    25.301228    16.445999 
   93200    241.83793   -396.49262    181563.75   -13344.143    994.80463   -14338.947   -861.87914    524.83478       78.641     25.30498    16.426826 
   93400    234.39069   -410.43241    181563.75   -13343.755     964.1703   -14307.926   -890.80542    527.79319    78.639206    25.310102    16.436054 
   93600    239.01696   -413.12369    181563.75   -13315.565    983.20055   -14298.766   -919.17214    523.48713    78.637922    25.307396    16.468442 
   93800    236.96342   -374.61563    181563.75   -13251.376    974.75327   -14226.129   -801.10612    522.20231    78.635161    25.304865    16.478367 
   94000    236.43688    -377.4491    181563.75   -13293.487    972.58733   -14266.074   -794.63528    521.80196    78.633535    25.302607    16.502218 
   94200    238.28471   -391.38185    181563.75   -13214.341    980.18842   -14194.529   -852.52568    523.95717    78.634806     25.30439    16.502305 
   94400    247.26518   -361.70558    181563.75   -13206.565    1017.1297   -14223.695   -740.39765     524.2692    78.633844    25.305784    16.487028 
   94600    246.72881   -294.69759    181563.75   -13201.903    1014.9234   -14216.827   -507.74771    522.46712    78.635535     25.30428    16.471947 
   94800    244.24101   -454.72491    181563.75   -13170.068    1004.6898   -14174.758   -1075.9449     522.1514     78.63796    25.302818    16.455834 
   95000      245.235   -351.99645    181563.75   -13285.282    1008.7785   -14294.061   -711.73776    523.05211    78.634165    25.302128    16.473181 
   95200    239.17257   -323.60604    181563.75   -13287.994    983.84065   -14271.835   -605.61225    523.32791    78.634511    25.298083    16.462637 
   95400    240.41437    -474.0516    181563.75   -13289.948     988.9488   -14278.897   -1122.9351    525.37822    78.636937     25.29354    16.475107 
   95600    235.06097   -490.97327    181563.75   -13294.811    966.92749   -14261.739   -1166.9324     525.3087     78.63684    25.290194     16.45408 
   95800    238.17967   -345.86137    181563.75   -13294.543    979.75631     -14274.3   -638.26694    527.14977    78.637987     25.28353    16.455531 
   96000    240.22991   -305.36157    181563.75   -13320.375    988.19001   -14308.565   -556.24738    529.53058    78.634884    25.280352    16.457597 
   96200    237.71988   -281.92349    181563.75    -13320.72    977.86498   -14298.585   -450.79866    530.91483    78.633417    25.279314    16.445369 
   96400    240.07898   -344.33367    181563.75   -13270.001    987.56917    -14257.57   -682.84231    534.45549      78.6339     25.27619    16.471032 
   96600    237.72696   -585.80264    181563.75   -13342.317    977.89408   -14320.211   -1517.2237    536.25683    78.633009    25.273718    16.453176 
   96800    251.95809   -220.78785    181563.75   -13294.122    1036.4341   -14330.556   -215.49746    536.73095    78.630223    25.272436     16.47138 
   97000    243.84488   -539.99478    181563.75   -13314.947    1003.0603   -14318.007    -1399.379     538.5371    78.627839    25.268903    16.448746 
   97200    246.61394   -539.94832    181563.75   -13221.509    1014.4509    -14235.96    -1428.689    541.98554    78.624867    25.268861    16.458628 
   97400    235.25243   -273.55805    181563.75   -13346.485    967.71507     -14314.2   -428.93588    539.10624    78.626153    25.265387    16.435005 
   97600    233.69534   -276.84347    181563.75   -13312.486    961.30995   -14273.796   -396.89074    538.83213    78.625368    25.259957    16.422703 
   97800    238.12066   -299.19941    181563.75   -13327.365     979.5136   -14306.879   -535.31404    538.65709    78.625297    25.258036      16.4312 
   98000      233.025   -477.49268    181563.75   -13360.769     958.5525   -14319.321   -1112.4703    542.87784     78.62583    25.257882    16.426805 
   98200    239.21397   -358.52185    181563.75   -13348.156    984.01095   -14332.167   -682.47898    544.75546     78.62438    25.256703    16.408588 
   98400    237.58546   -337.36036    181563.75    -13281.94    977.31204   -14259.252   -647.44983    542.60486    78.618353    25.260897    16.410319 
   98600    238.58755   -291.58284    181563.75   -13260.655    981.43415   -14242.089   -448.84315    542.67315     78.61981    25.263214    16.421347 
   98800    253.08263   -338.95205    181563.75    -13189.02    1041.0599    -14230.08   -639.94286    540.92084    78.621403    25.267275    16.389868 
   99000    239.40936   -200.54588    181563.75   -13250.787     984.8147   -14235.602   -180.68835    537.89209    78.617701    25.268984    16.369169 
   99200    240.81421   -336.78316    181563.75   -13254.126    990.59355   -14244.719   -614.21159    538.94297    78.621101    25.266596     16.36544 
   99400      240.184   -399.56102    181563.75   -13251.004    988.00116   -14239.005   -873.80202    539.96336    78.622034    25.267896    16.376734 
   99600    245.73227   -451.72634    181563.75   -13240.051    1010.8241   -14250.875   -1064.2574    540.78923    78.619233    25.269822    16.382299 
   99800    245.86962    -239.3211    181563.75   -13256.215    1011.3891   -14267.604   -245.86169    542.54201    78.610956    25.269426    16.398012 
  100000    239.67806   -453.46849    181563.75   -13296.099    985.91997   -14282.019   -1062.0071     545.7117    78.610774    25.270498    16.373575 
  100200    239.61844   -200.09291    181563.75   -13242.898    985.67473   -14228.573    -162.7661    545.65259    78.613881    25.267941    16.402713 
  100400    244.26444   -308.72222    181563.75   -13280.143    1004.7861   -14284.929   -472.36253    546.52197    78.616722    25.267262    16.432172 
  100600    239.64131   -378.31995    181563.75   -13334.514    985.76882   -14320.283   -815.68684    547.48145    78.619355    25.267708    16.426965 
  100800    240.10763   -435.61373    181563.75   -13286.435    987.68702   -14274.122   -947.92407    549.74891    78.621068    25.268057     16.41224 
[...]
 5175800    223.69726   -367.79862    181563.75   -14726.213    920.18269   -15646.396   -660.68866    5186.9573     78.02439    26.682198    16.453211 
 5176000    231.57513   -333.35546    181563.75   -14682.003    952.58842   -15634.591   -524.96021    5186.0091     78.02433    26.682881    16.449561 
 5176200    225.93142   -314.98411    181563.75   -14699.455    929.37295   -15628.828   -489.23472     5184.736    78.024082    26.681313    16.448673 
 5176400    227.03416   -365.69438    181563.75   -14738.928    933.90907   -15672.837   -670.69166    5185.6592    78.025909    26.679927     16.44804 
 5176600    228.16465   -448.99609    181563.75    -14691.48    938.55936    -15630.04   -944.78143    5186.8547    78.026442    26.679412    16.448736 
 5176800    226.39482   -292.50253    181563.75   -14710.587    931.27915   -15641.866   -377.75819    5185.6086    78.028846    26.678615    16.450568 
 5177000    222.79661   -274.59256    181563.75   -14716.873    916.47784   -15633.351   -345.87516    5183.7074    78.029151    26.679468    16.445778 
 5177200    227.62445    -429.5003    181563.75   -14664.893    936.33725   -15601.231   -886.98511    5185.4406    78.030091    26.678523    16.444413 
 5177400    222.90756   -408.10312    181563.75   -14694.629    916.93423   -15611.563   -800.69071    5186.9503    78.031672    26.677263    16.448651 
 5177600    224.38974   -332.95784    181563.75   -14698.961    923.03121   -15621.992   -567.93988    5183.8097     78.03405    26.675976    16.454188 
 5177800    220.37741   -328.76131    181563.75   -14710.669    906.52639   -15617.196   -484.37263    5185.2038    78.034712    26.676526    16.452342 
 5178000    229.38856   -374.30752    181563.75   -14694.251    943.59393   -15637.845   -679.88164    5189.4575    78.036376    26.675352     16.45024 
 5178200    222.07563   -399.57843    181563.75   -14705.383    913.51206   -15618.895   -805.36068    5188.2809    78.036079    26.675218    16.449737 
 5178400    229.16393   -262.79143    181563.75   -14678.147    942.66991   -15620.817   -274.21516    5186.4512     78.03817    26.675885    16.450722 
 5178600    229.38166   -313.27651    181563.75   -14661.687    943.56556   -15605.252   -458.22232     5186.738    78.036473    26.673657    16.458592 
 5178800    230.25283    -445.3616    181563.75   -14641.982    947.14914   -15589.131   -951.01908    5188.1272     78.03679    26.673544    16.451804 
 5179000    230.05404   -281.07058    181563.75   -14631.898    946.33141    -15578.23   -354.59967    5186.9143    78.038429     26.67435    16.450854 
 5179200    221.24893   -347.71579    181563.75   -14667.683    910.11144   -15577.794   -610.50852    5184.2706    78.036278    26.673013    16.453847 
 5179400    225.63301   -408.54242    181563.75   -14678.054    928.14543     -15606.2   -808.88862    5187.5181    78.037516    26.673936    16.442909 
 5179600    223.76882   -376.12898    181563.75    -14704.88    920.47702   -15625.357   -731.12811    5186.7072    78.039622    26.673213     16.44582 
 5179800    229.46267   -315.84746    181563.75   -14664.475    943.89878   -15608.374   -508.17469    5185.9316    78.039318    26.673528    16.449745 
 5180000    226.27308   -400.90318    181563.75   -14696.088    930.77838   -15626.867   -779.65721    5184.4899    78.040406     26.67423    16.445814 
 5180200    226.24658   -331.88724    181563.75   -14683.347    930.66936   -15614.017   -528.72317    5187.0056    78.042743     26.67477    16.439344 
 5180400    231.33248   -362.59316    181563.75   -14669.759     951.5903    -15621.35   -644.14384    5187.2431    78.043741    26.676256    16.451507 
 5180600    225.19991   -357.30728    181563.75   -14723.666    926.36385    -15650.03   -601.11909    5185.8311    78.044112    26.675041     16.45134 
 5180800    225.60726    -380.4727    181563.75   -14694.431     928.0395   -15622.471   -723.57017    5185.9733    78.042382    26.675221    16.447316 
 5181000    220.96951    -451.6729    181563.75     -14710.3    908.96201   -15619.262   -957.10376    5187.2956    78.043205    26.675529    16.452673 
 5181200    222.65657   -396.02842    181563.75   -14681.576    915.90177   -15597.478   -756.77099    5185.6508    78.046286    26.676521    16.448551 
 5181400    223.04905   -347.81474    181563.75   -14670.079    917.51626   -15587.595   -589.45058    5185.6648    78.044862    26.676758    16.449343 
 5181600    225.22015   -383.32275    181563.75   -14669.881    926.44713   -15596.328   -672.18444      5186.55    78.046485    26.676718    16.451862 
 5181800    225.74064   -362.88005    181563.75    -14644.97    928.58818   -15573.558   -635.69548    5185.7273    78.046756    26.675593    16.447515 
 5182000    225.92227   -396.86638    181563.75   -14709.326    929.33528   -15638.661     -796.859    5184.6296    78.047019    26.677579    16.452028 
 5182200    210.82478   -323.62389    181563.75    -14785.68    867.23148   -15652.912   -480.05744    5186.9345    78.049461    26.676228    16.447021 
 5182400    224.63562    -289.1211    181563.75   -14693.433    924.04263   -15617.475   -387.45095    5185.0055    78.052284    26.674695    16.443659 
 5182600    227.95455   -413.24642    181563.75   -14673.797    937.69513   -15611.492   -842.08583    5185.7735    78.051586    26.675012    16.445052 
 5182800    225.49737     -394.373    181563.75    -14697.71    927.58747   -15625.297   -756.38661    5185.9329    78.053491    26.675756    16.441411 
 5183000    228.97367   -310.13889    181563.75   -14683.297    941.88727   -15625.185   -444.87409    5186.6139    78.052309    26.676241    16.441508 
 5183200    228.62177   -351.30631    181563.75   -14655.714    940.43972   -15596.153   -601.61299    5186.7023    78.050974    26.675826     16.44223 
 5183400    228.73367   -441.62777    181563.75   -14711.071    940.90005   -15651.971   -958.10179    5185.6747    78.051254    26.675229    16.442683 
 5183600    231.60172   -339.71087    181563.75    -14697.46     952.6978   -15650.158   -574.73731    5184.6723    78.051876     26.67491    16.446514 
 5183800    222.40811   -369.80878    181563.75   -14731.769    914.87974   -15646.649   -655.28498    5187.0234    78.053353    26.673691    16.441833 
 5184000    223.17569   -420.13845    181563.75   -14716.095     918.0372   -15634.133   -875.18625     5187.283    78.053792    26.673384    16.446298 
 5184200    207.74492   -367.99293    181563.75   -14700.553    854.56243   -15555.116   -696.61237    5184.5988    78.054112    26.673001    16.450571 
 5184400    221.86832   -319.97162    181563.75    -14709.83    912.65932    -15622.49   -480.95662    5184.6883    78.056025    26.673371    16.448525 
 5184600    225.67322   -346.99307    181563.75   -14681.266    928.31083   -15609.576   -604.70592    5186.7106    78.055687    26.673987    16.450785 
 5184800    230.70146   -415.17162    181563.75   -14645.524    948.99459   -15594.518   -849.01595    5187.3008    78.056931     26.67614    16.446574 
 5185000    235.08562   -322.35708    181563.75    -14638.99    967.02888   -15606.019    -502.4539    5185.0651    78.057766    26.677022    16.445804 
 5185200    220.80907   -313.19546    181563.75   -14684.648    908.30206    -15592.95   -475.71139    5184.1113    78.057615    26.676948    16.446917 
 5185400    227.06956   -398.69234    181563.75   -14694.807     934.0547   -15628.862   -797.82201    5187.5062    78.059971    26.679295    16.447368 
 5185600    219.41597   -342.42561    181563.75   -14744.967    902.57151   -15647.539   -587.11602    5185.6891    78.059372    26.681609    16.448746 
 5185800    222.74602   -297.38291    181563.75   -14681.859    916.26974   -15598.129   -456.17501     5186.012    78.060673    26.683056    16.445246 
 5186000    236.44304   -335.65637    181563.75   -14644.224    972.61266   -15616.837   -537.99746    5186.1612    78.061526    26.682223    16.447917 
 5186200    232.78691   -357.93448    181563.75   -14641.546    957.57312   -15599.119   -620.56949    5186.8042    78.060731    26.682828    16.450124 
 5186400    226.20415   -319.74744    181563.75   -14709.964     930.4948   -15640.458   -487.08584     5185.413    78.059645    26.684884    16.447664 
 5186600    227.12435   -360.93006    181563.75   -14689.195    934.28006   -15623.475    -651.9446    5184.6226    78.059007    26.684112    16.443409 
 5186800    228.56514   -365.98796    181563.75   -14656.327    940.20677   -15596.534   -661.63836    5187.2065    78.059446    26.686513    16.438857 
 5187000    225.21951    -404.9613    181563.75   -14699.203    926.44449   -15625.648   -821.32125    5187.8162    78.059645    26.688716    16.447597 
 5187200    227.12295   -366.79315    181563.75   -14681.591    934.27432   -15615.865   -677.83583    5187.3436    78.060399     26.69111    16.436194 
 5187400    226.11192    -362.3916    181563.75   -14727.591    930.11544   -15657.707   -646.07969    5185.6941    78.059803    26.694979    16.432433 
 5187600    221.73682   -425.46815    181563.75   -14707.741    912.11836   -15619.859   -872.39356     5187.104    78.059805    26.698181     16.42875 
 5187800    225.00179   -336.70325    181563.75   -14682.702    925.54886   -15608.251   -534.74194      5186.92    78.059862    26.699761    16.435619 
 5188000     228.1193   -345.97485    181563.75    -14706.09    938.37283   -15644.462   -587.26386    5186.9723    78.059661    26.701847    16.440245 
 5188200    231.70458   -341.55535    181563.75   -14679.495    953.12093   -15632.616   -581.91652    5186.8228    78.058793    26.705307    16.439153 
 5188400    224.91243   -356.00807    181563.75   -14696.577    925.18128   -15621.758   -604.43131     5185.426     78.05909    26.707924    16.433461 
 5188600    227.21809    -401.1099    181563.75   -14710.545    934.66569   -15645.211     -765.869    5188.1119    78.059256    26.711064    16.435102 
 5188800    226.39567   -400.07222    181563.75   -14663.982    931.28262   -15595.265   -771.13287    5186.7697    78.058058    26.711978    16.435091 
 5189000    234.10161   -365.22681    181563.75   -14685.845    962.98114   -15648.827   -691.58221     5184.505    78.056706    26.713448    16.439248 
 5189200    229.23998   -332.83165    181563.75   -14664.382    942.98276   -15607.365   -490.16187    5185.6596    78.057423    26.714797    16.435389 
 5189400    222.80805   -382.74887    181563.75   -14683.216    916.52489   -15599.741   -720.47558    5188.3198    78.058489    26.713665    16.442243 
 5189600    233.39511   -309.40389    181563.75   -14702.335    960.07497    -15662.41   -450.92944     5186.126    78.057381    26.713858    16.435458 
 5189800     224.2368   -285.23582    181563.75   -14708.381    922.40209   -15630.783   -385.10275    5184.7968    78.057108    26.715204    16.424083 
 5190000    224.16028   -353.44531    181563.75   -14690.695    922.08732   -15612.783   -603.26979    5188.3173    78.056077    26.717253    16.433545 
 5190200    228.90028   -350.28127    181563.75   -14713.349     941.5854   -15654.934   -603.54772    5188.5513     78.05384    26.717911    16.435911 
 5190400    219.78781   -311.10315    181563.75   -14677.005    904.10108   -15581.106   -467.32255    5187.4019    78.053587    26.719852    16.435359 
 5190600    235.68473   -262.54365    181563.75   -14660.424    969.49334   -15629.918   -294.34695    5187.6411     78.05456     26.72155    16.434976 
 5190800    227.89702   -394.36788    181563.75   -14680.246    937.45847   -15617.704   -768.68241    5186.6064    78.055788    26.723573     16.43632 
 5191000    223.92936    -375.7534    181563.75   -14725.655    921.13744   -15646.793   -693.52995    5188.0644    78.056631    26.724824    16.438834 
 5191200    221.27394   -272.28906    181563.75   -14704.365    910.21429   -15614.579    -330.7093    5186.3475    78.056432    26.725812    16.438737 
 5191400    224.89022   -339.67512    181563.75   -14687.311    925.08996   -15612.401   -573.12291    5186.1687    78.054716    26.725698    16.442918 
 5191600    220.82386   -400.00167    181563.75   -14687.976    908.36288   -15596.339   -804.52309    5188.0993    78.053917    26.724857     16.44041 
 5191800     217.1808   -406.94901    181563.75   -14700.304     893.3771   -15593.681   -812.21636    5187.5039    78.053529    26.723652    16.437298 
 5192000    230.47125    -248.2587    181563.75   -14658.816    948.04762   -15606.863   -272.13656     5187.372    78.054779    26.724438    16.438078 
 5192200    236.86453   -428.09684    181563.75    -14613.19    974.34648   -15587.537   -930.28821    5189.9758    78.052973    26.727284    16.436504 
 5192400    235.68699   -362.58326    181563.75   -14615.697    969.50265   -15585.199   -626.62335    5187.4618    78.053247    26.729592     16.43921 
 5192600    223.85735   -315.34046    181563.75   -14686.617    920.84121   -15607.458   -498.69442    5183.7663    78.053478    26.730205    16.443377 
 5192800    223.63256   -297.64206    181563.75   -14691.818    919.91652   -15611.735   -433.16799    5185.8552    78.053472    26.732656    16.447259 
 5193000     222.6343    -421.3345    181563.75   -14671.413    915.81015   -15587.223   -853.81594     5187.685    78.054223    26.734558    16.442966 
 5193200    231.76821   -348.38431    181563.75    -14674.36    953.38267   -15627.743   -600.36817    5187.3441    78.054554    26.734793    16.443779 
 5193400    221.19637   -319.08176    181563.75   -14742.776    909.89522   -15652.671   -493.43792    5185.6022    78.055967    26.735694     16.44161 
 5193600    224.01923   -414.09052    181563.75   -14680.111    921.50712   -15601.618   -840.77015    5186.2433    78.056134     26.73712    16.442933 
 5193800    220.86614   -478.52063    181563.75    -14707.08     908.5368   -15615.617   -1062.9709    5190.8014    78.056402    26.737456    16.438843 
 5194000    226.40867   -337.70486    181563.75   -14662.343    931.33611    -15593.68   -561.75953    5187.1995    78.055357    26.737763    16.438266 
 5194200    225.28596   -256.98728    181563.75   -14686.626     926.7178   -15613.344   -321.15545     5185.988     78.05486    26.740213    16.442739 
 5194400    231.66402   -370.38935    181563.75   -14643.078    952.95409   -15596.033   -647.00744    5185.9627    78.054347    26.738984    16.444039 
 5194600    220.58861   -396.15007    181563.75   -14697.786    907.39519   -15605.181    -742.6011    5186.5326    78.053986    26.739848    16.447362 
 5194800    226.68611   -305.03481    181563.75   -14664.732    932.47735    -15597.21   -466.55245    5184.4712     78.05454    26.739668    16.439512 
 5195000    224.53752   -375.93922    181563.75   -14664.143    923.63909   -15587.783   -694.31558    5185.2775    78.056443    26.739923    16.441553 
 5195200    223.83089   -445.91504    181563.75   -14710.188    920.73237    -15630.92   -962.92749    5188.2857    78.057081    26.739471    16.437266 
 5195400    221.52717   -355.50156    181563.75   -14681.933    911.25598   -15593.189   -629.65552    5187.3949    78.056177    26.740345      16.4385 
 5195600    238.62067   -355.61172    181563.75   -14692.765    981.57041   -15674.335   -642.19091    5185.9588    78.055482    26.740024    16.449742 
 5195800    224.10311   -345.94786    181563.75   -14698.037    921.85214   -15619.889   -597.22534    5185.6992      78.0531    26.738577    16.443109 
 5196000    232.90595   -376.33397    181563.75   -14659.355    958.06277   -15617.417    -684.4558    5186.7812    78.052451    26.738074    16.450841 
 5196200    222.85661   -343.06168    181563.75   -14686.418    916.72463   -15603.142   -568.83021    5184.5556    78.052879    26.739937     16.44082 
 5196400    226.84491   -364.93196    181563.75   -14642.017     933.1306   -15575.147   -711.83552    5187.6407    78.052528    26.740781     16.44391 
 5196600    223.36476   -422.48697    181563.75   -14727.162    918.81494   -15645.977   -906.62735    5188.3027    78.052958    26.742365    16.440143 
 5196800    225.58812    -378.0217    181563.75   -14710.606    927.96078   -15638.567   -707.49753    5187.8208    78.052991    26.743605    16.440584 
 5197000    232.52239   -304.48091    181563.75   -14684.441    956.48503   -15640.927   -464.99366    5186.8133     78.05177    26.744108    16.444802 
 5197200    223.93284   -353.11121    181563.75   -14700.817    921.15176   -15621.969   -655.31473    5185.1773    78.049768    26.744747    16.437029 
 5197400    233.27686   -423.64195    181563.75   -14632.004    959.58851   -15591.593   -878.36272    5189.3085    78.050073    26.746109    16.440886 
 5197600    226.44976   -349.28833    181563.75   -14675.902    931.50513   -15607.407   -610.01966    5187.8507    78.049827    26.746141    16.435413 
 5197800    234.72863   -306.20861    181563.75   -14677.051     965.5604   -15642.612   -440.63707    5186.8249    78.050371    26.745153    16.440483 
 5198000    231.50161   -377.57545    181563.75   -14651.414    952.28599     -15603.7   -705.89053    5187.7749    78.050463    26.746671    16.441473 
 5198200    230.93354   -384.86091    181563.75   -14693.167    949.94924   -15643.116   -733.73852    5186.9351    78.051267    26.746505     16.43881 
 5198400    226.20721   -324.28726    181563.75   -14712.563    930.50741   -15643.071   -524.36457    5185.2654    78.051643    26.746818    16.438469 
 5198600    228.19981   -374.12438    181563.75    -14693.46    938.70401   -15632.164   -728.97732     5186.563    78.051321    26.747007    16.439052 
 5198800    219.72954   -369.98751    181563.75   -14740.626     903.8614   -15644.488   -670.90097    5189.3943    78.051088    26.747117    16.436031 
 5199000    232.71266   -384.43281    181563.75   -14713.342    957.26767    -15670.61   -732.68162    5188.0216    78.051609    26.748341     16.43785 
 5199200    227.05984   -270.29074    181563.75    -14707.79     934.0147   -15641.804   -324.30619    5186.5659    78.050358    26.749259    16.434786 
 5199400     223.5487   -328.60622    181563.75   -14742.843    919.57156   -15662.415   -535.70906    5185.8924    78.048781    26.749544    16.431571 
 5199600    221.66938   -297.51779    181563.75   -14739.597    911.84097   -15651.438   -407.97721     5186.445     78.04985    26.750639    16.432882 
 5199800    235.36927   -392.77906    181563.75   -14682.595    968.19568   -15650.791   -801.83447    5187.3253    78.048242    26.750288    16.435481 
 5200000    227.00259   -309.27984    181563.75   -14672.756     933.7792   -15606.536   -477.11916    5185.0578    78.048407    26.748955     16.43585 
Loop time of 7669.98 on 100 procs for 5200000 steps with 9253 atoms

Performance: 585.764 ns/day, 0.041 hours/ns, 677.968 timesteps/s
97.8% CPU use with 100 MPI tasks x no OpenMP threads

MPI task timing breakdown:
Section |  min time  |  avg time  |  max time  |%varavg| %total
---------------------------------------------------------------
Pair    | 0.55854    | 2095.1     | 6432.9     |5077.0 | 27.32
Neigh   | 4.8582     | 144.88     | 358.85     | 977.7 |  1.89
Comm    | 116.03     | 1526.6     | 5429       |3918.8 | 19.90
Output  | 85.852     | 85.938     | 89.718     |   4.1 |  1.12
Modify  | 168.66     | 3737.5     | 7387.6     |5117.5 | 48.73
Other   |            | 79.91      |            |       |  1.04

Nlocal:    92.53 ave 190 max 0 min
Histogram: 30 1 8 11 0 0 0 4 35 11
Nghost:    793.87 ave 1093 max 579 min
Histogram: 23 7 0 21 14 5 3 17 0 10
Neighs:    0 ave 0 max 0 min
Histogram: 100 0 0 0 0 0 0 0 0 0
FullNghs:  9932.86 ave 22844 max 0 min
Histogram: 34 16 0 0 0 0 0 24 20 6

Total # of neighbors = 993286
Ave neighs/atom = 107.347
Neighbor list builds = 517047
Dangerous builds = 0
write_data 		${DIR}/data.${NAME}_run
write_data 		run_22/data.${NAME}_run
write_data 		run_22/data.ibeam_cooling_22_run
Total wall time: 2:08:06
