LAMMPS data file via write_data, version 16 Mar 2018, timestep = 5200000

8482 atoms
2 atom types

0.0000000000000000e+00 1.8998919999999998e+02 xlo xhi
0.0000000000000000e+00 2.6999900000000000e+01 ylo yhi
0.0000000000000000e+00 3.9850446357588666e+01 zlo zhi

Masses

1 12.01
2 18.015

Atoms # atomic

1 1 0.0000000000000000e+00 2.8417180249513345e+00 1.6770000000000000e+00 0 0 0
3 1 0.0000000000000000e+00 0.0000000000000000e+00 1.6770000000000000e+00 0 0 0
5 1 1.2304999999999999e+00 7.1042950623783474e-01 1.6770000000000000e+00 0 0 0
12 1 1.2304999999999999e+00 2.1312885187134998e+00 1.6770000000000000e+00 0 0 0
14 1 2.4609999999999999e+00 2.8417180249513345e+00 1.6770000000000000e+00 0 0 0
16 1 2.4609999999999999e+00 0.0000000000000000e+00 1.6770000000000000e+00 0 0 0
18 1 3.6915000000000000e+00 7.1042950623783474e-01 1.6770000000000000e+00 0 0 0
33 1 3.6914999999999996e+00 2.1312885187134998e+00 1.6770000000000000e+00 0 0 0
35 1 4.9219999999999997e+00 2.8417180249513341e+00 1.6770000000000000e+00 0 0 0
37 1 4.9219999999999997e+00 0.0000000000000000e+00 1.6770000000000000e+00 0 0 0
39 1 6.1524999999999999e+00 7.1042950623783430e-01 1.6770000000000000e+00 0 0 0
62 1 6.1524999999999999e+00 2.1312885187134993e+00 1.6770000000000000e+00 0 0 0
64 1 7.3829999999999991e+00 2.8417180249513345e+00 1.6770000000000000e+00 0 0 0
66 1 7.3829999999999991e+00 0.0000000000000000e+00 1.6770000000000000e+00 0 0 0
68 1 8.6134999999999984e+00 7.1042950623783430e-01 1.6770000000000000e+00 0 0 0
99 1 8.6134999999999984e+00 2.1312885187135002e+00 1.6770000000000000e+00 0 0 0
101 1 9.8439999999999994e+00 2.8417180249513336e+00 1.6770000000000000e+00 0 0 0
103 1 9.8439999999999994e+00 0.0000000000000000e+00 1.6770000000000000e+00 0 0 0
105 1 1.1074500000000000e+01 7.1042950623783341e-01 1.6770000000000000e+00 0 0 0
144 1 1.1074500000000000e+01 2.1312885187135002e+00 1.6770000000000000e+00 0 0 0
146 1 1.2305000000000000e+01 2.8417180249513336e+00 1.6770000000000000e+00 0 0 0
148 1 1.2305000000000000e+01 0.0000000000000000e+00 1.6770000000000000e+00 0 0 0
8 1 0.0000000000000000e+00 4.2625770374269996e+00 1.6770000000000000e+00 0 0 0
10 1 1.2305000000000001e+00 4.9730065436648339e+00 1.6770000000000000e+00 0 0 0
25 1 1.2304999999999999e+00 6.3938655561404989e+00 1.6770000000000000e+00 0 0 0
29 1 2.4609999999999999e+00 4.2625770374269996e+00 1.6770000000000000e+00 0 0 0
31 1 3.6914999999999996e+00 4.9730065436648339e+00 1.6770000000000000e+00 0 0 0
54 1 3.6914999999999996e+00 6.3938655561404989e+00 1.6770000000000000e+00 0 0 0
58 1 4.9219999999999997e+00 4.2625770374269987e+00 1.6770000000000000e+00 0 0 0
60 1 6.1524999999999999e+00 4.9730065436648339e+00 1.6770000000000000e+00 0 0 0
91 1 6.1524999999999999e+00 6.3938655561404989e+00 1.6770000000000000e+00 0 0 0
95 1 7.3829999999999991e+00 4.2625770374269996e+00 1.6770000000000000e+00 0 0 0
97 1 8.6135000000000002e+00 4.9730065436648339e+00 1.6770000000000000e+00 0 0 0
136 1 8.6135000000000002e+00 6.3938655561404998e+00 1.6770000000000000e+00 0 0 0
140 1 9.8439999999999994e+00 4.2625770374270004e+00 1.6770000000000000e+00 0 0 0
142 1 1.1074499999999999e+01 4.9730065436648339e+00 1.6770000000000000e+00 0 0 0
188 1 1.1074499999999999e+01 6.3938655561404989e+00 1.6770000000000000e+00 0 0 0
192 1 1.2305000000000000e+01 4.2625770374269987e+00 1.6770000000000000e+00 0 0 0
6 1 0.0000000000000000e+00 7.1042950623783341e+00 1.6770000000000000e+00 0 0 0
21 1 0.0000000000000000e+00 8.5251540748539991e+00 1.6770000000000000e+00 0 0 0
23 1 1.2304999999999997e+00 9.2355835810918343e+00 1.6770000000000000e+00 0 0 0
27 1 2.4609999999999999e+00 7.1042950623783341e+00 1.6770000000000000e+00 0 0 0
50 1 2.4609999999999994e+00 8.5251540748539991e+00 1.6770000000000000e+00 0 0 0
52 1 3.6915000000000000e+00 9.2355835810918343e+00 1.6770000000000000e+00 0 0 0
56 1 4.9219999999999997e+00 7.1042950623783341e+00 1.6770000000000000e+00 0 0 0
87 1 4.9219999999999997e+00 8.5251540748539991e+00 1.6770000000000000e+00 0 0 0
89 1 6.1524999999999999e+00 9.2355835810918343e+00 1.6770000000000000e+00 0 0 0
93 1 7.3830000000000000e+00 7.1042950623783341e+00 1.6770000000000000e+00 0 0 0
132 1 7.3830000000000000e+00 8.5251540748539991e+00 1.6770000000000000e+00 0 0 0
134 1 8.6134999999999984e+00 9.2355835810918343e+00 1.6770000000000000e+00 0 0 0
138 1 9.8439999999999994e+00 7.1042950623783341e+00 1.6770000000000000e+00 0 0 0
184 1 9.8439999999999994e+00 8.5251540748539973e+00 1.6770000000000000e+00 0 0 0
186 1 1.1074499999999999e+01 9.2355835810918343e+00 1.6770000000000000e+00 0 0 0
190 1 1.2305000000000000e+01 7.1042950623783341e+00 1.6770000000000000e+00 0 0 0
235 1 1.2305000000000000e+01 8.5251540748539991e+00 1.6770000000000000e+00 0 0 0
19 1 0.0000000000000000e+00 1.1366872099805333e+01 1.6770000000000000e+00 0 0 0
42 1 0.0000000000000000e+00 1.2787731112280998e+01 1.6770000000000000e+00 0 0 0
44 1 1.2305000000000001e+00 1.3498160618518833e+01 1.6770000000000000e+00 0 0 0
46 1 1.2304999999999997e+00 1.0656442593567498e+01 1.6770000000000000e+00 0 0 0
48 1 2.4609999999999999e+00 1.1366872099805335e+01 1.6770000000000000e+00 0 0 0
79 1 2.4609999999999999e+00 1.2787731112280998e+01 1.6770000000000000e+00 0 0 0
81 1 3.6915000000000000e+00 1.3498160618518833e+01 1.6770000000000000e+00 0 0 0
83 1 3.6914999999999996e+00 1.0656442593567499e+01 1.6770000000000000e+00 0 0 0
85 1 4.9219999999999997e+00 1.1366872099805333e+01 1.6770000000000000e+00 0 0 0
124 1 4.9219999999999997e+00 1.2787731112281000e+01 1.6770000000000000e+00 0 0 0
126 1 6.1524999999999990e+00 1.3498160618518833e+01 1.6770000000000000e+00 0 0 0
128 1 6.1524999999999999e+00 1.0656442593567499e+01 1.6770000000000000e+00 0 0 0
130 1 7.3829999999999991e+00 1.1366872099805335e+01 1.6770000000000000e+00 0 0 0
176 1 7.3829999999999991e+00 1.2787731112280998e+01 1.6770000000000000e+00 0 0 0
178 1 8.6135000000000002e+00 1.3498160618518835e+01 1.6770000000000000e+00 0 0 0
180 1 8.6134999999999984e+00 1.0656442593567498e+01 1.6770000000000000e+00 0 0 0
182 1 9.8439999999999994e+00 1.1366872099805335e+01 1.6770000000000000e+00 0 0 0
227 1 9.8439999999999994e+00 1.2787731112280998e+01 1.6770000000000000e+00 0 0 0
229 1 1.1074499999999999e+01 1.3498160618518833e+01 1.6770000000000000e+00 0 0 0
231 1 1.1074500000000000e+01 1.0656442593567498e+01 1.6770000000000000e+00 0 0 0
233 1 1.2304999999999998e+01 1.1366872099805333e+01 1.6770000000000000e+00 0 0 0
270 1 1.2305000000000000e+01 1.2787731112280998e+01 1.6770000000000000e+00 0 0 0
2 1 0.0000000000000000e+00 1.4208590124756650e+00 5.0310000000000006e+00 0 0 0
4 1 0.0000000000000000e+00 0.0000000000000000e+00 5.0310000000000006e+00 0 0 0
13 1 1.2304999999999999e+00 2.1312885187134998e+00 5.0310000000000006e+00 0 0 0
15 1 2.4609999999999999e+00 1.4208590124756650e+00 5.0310000000000006e+00 0 0 0
17 1 2.4609999999999999e+00 0.0000000000000000e+00 5.0310000000000006e+00 0 0 0
34 1 3.6914999999999996e+00 2.1312885187134998e+00 5.0310000000000006e+00 0 0 0
340 1 0.0000000000000000e+00 2.8417180249513345e+00 8.3849999999999998e+00 0 0 0
341 1 0.0000000000000000e+00 0.0000000000000000e+00 8.3849999999999998e+00 0 0 0
342 1 1.2304999999999999e+00 7.1042950623783474e-01 8.3849999999999998e+00 0 0 0
346 1 1.2304999999999999e+00 2.1312885187134998e+00 8.3849999999999998e+00 0 0 0
347 1 2.4609999999999999e+00 2.8417180249513345e+00 8.3849999999999998e+00 0 0 0
348 1 2.4609999999999999e+00 0.0000000000000000e+00 8.3849999999999998e+00 0 0 0
349 1 3.6915000000000000e+00 7.1042950623783474e-01 8.3849999999999998e+00 0 0 0
357 1 3.6914999999999996e+00 2.1312885187134998e+00 8.3849999999999998e+00 0 0 0
36 1 4.9219999999999997e+00 1.4208590124756650e+00 5.0310000000000006e+00 0 0 0
38 1 4.9219999999999997e+00 0.0000000000000000e+00 5.0310000000000006e+00 0 0 0
63 1 6.1524999999999999e+00 2.1312885187134993e+00 5.0310000000000006e+00 0 0 0
65 1 7.3829999999999991e+00 1.4208590124756659e+00 5.0310000000000006e+00 0 0 0
67 1 7.3829999999999991e+00 0.0000000000000000e+00 5.0310000000000006e+00 0 0 0
358 1 4.9219999999999997e+00 2.8417180249513341e+00 8.3849999999999998e+00 0 0 0
359 1 4.9219999999999997e+00 0.0000000000000000e+00 8.3849999999999998e+00 0 0 0
360 1 6.1524999999999999e+00 7.1042950623783430e-01 8.3849999999999998e+00 0 0 0
372 1 6.1524999999999999e+00 2.1312885187134993e+00 8.3849999999999998e+00 0 0 0
373 1 7.3829999999999991e+00 2.8417180249513345e+00 8.3849999999999998e+00 0 0 0
374 1 7.3829999999999991e+00 0.0000000000000000e+00 8.3849999999999998e+00 0 0 0
100 1 8.6134999999999984e+00 2.1312885187135002e+00 5.0310000000000006e+00 0 0 0
102 1 9.8439999999999994e+00 1.4208590124756659e+00 5.0310000000000006e+00 0 0 0
104 1 9.8439999999999994e+00 0.0000000000000000e+00 5.0310000000000006e+00 0 0 0
145 1 1.1074500000000000e+01 2.1312885187135002e+00 5.0310000000000006e+00 0 0 0
147 1 1.2305000000000000e+01 1.4208590124756650e+00 5.0310000000000006e+00 0 0 0
149 1 1.2305000000000000e+01 0.0000000000000000e+00 5.0310000000000006e+00 0 0 0
375 1 8.6134999999999984e+00 7.1042950623783430e-01 8.3849999999999998e+00 0 0 0
391 1 8.6134999999999984e+00 2.1312885187135002e+00 8.3849999999999998e+00 0 0 0
392 1 9.8439999999999994e+00 2.8417180249513336e+00 8.3849999999999998e+00 0 0 0
393 1 9.8439999999999994e+00 0.0000000000000000e+00 8.3849999999999998e+00 0 0 0
394 1 1.1074500000000000e+01 7.1042950623783341e-01 8.3849999999999998e+00 0 0 0
414 1 1.1074500000000000e+01 2.1312885187135002e+00 8.3849999999999998e+00 0 0 0
415 1 1.2305000000000000e+01 2.8417180249513336e+00 8.3849999999999998e+00 0 0 0
416 1 1.2305000000000000e+01 0.0000000000000000e+00 8.3849999999999998e+00 0 0 0
7 1 0.0000000000000000e+00 5.6834360499026646e+00 5.0310000000000006e+00 0 0 0
9 1 0.0000000000000000e+00 4.2625770374269996e+00 5.0310000000000006e+00 0 0 0
11 1 1.2304999999999999e+00 3.5521475311891648e+00 5.0310000000000006e+00 0 0 0
26 1 1.2304999999999999e+00 6.3938655561404989e+00 5.0310000000000006e+00 0 0 0
28 1 2.4609999999999999e+00 5.6834360499026646e+00 5.0310000000000006e+00 0 0 0
30 1 2.4609999999999999e+00 4.2625770374269996e+00 5.0310000000000006e+00 0 0 0
32 1 3.6914999999999996e+00 3.5521475311891648e+00 5.0310000000000006e+00 0 0 0
55 1 3.6914999999999996e+00 6.3938655561404989e+00 5.0310000000000006e+00 0 0 0
344 1 0.0000000000000000e+00 4.2625770374269996e+00 8.3849999999999998e+00 0 0 0
345 1 1.2305000000000001e+00 4.9730065436648339e+00 8.3849999999999998e+00 0 0 0
353 1 1.2304999999999999e+00 6.3938655561404989e+00 8.3849999999999998e+00 0 0 0
355 1 2.4609999999999999e+00 4.2625770374269996e+00 8.3849999999999998e+00 0 0 0
356 1 3.6914999999999996e+00 4.9730065436648339e+00 8.3849999999999998e+00 0 0 0
368 1 3.6914999999999996e+00 6.3938655561404989e+00 8.3849999999999998e+00 0 0 0
57 1 4.9219999999999997e+00 5.6834360499026655e+00 5.0310000000000006e+00 0 0 0
59 1 4.9219999999999997e+00 4.2625770374269987e+00 5.0310000000000006e+00 0 0 0
61 1 6.1524999999999999e+00 3.5521475311891653e+00 5.0310000000000006e+00 0 0 0
92 1 6.1524999999999999e+00 6.3938655561404989e+00 5.0310000000000006e+00 0 0 0
94 1 7.3829999999999991e+00 5.6834360499026655e+00 5.0310000000000006e+00 0 0 0
96 1 7.3829999999999991e+00 4.2625770374269996e+00 5.0310000000000006e+00 0 0 0
370 1 4.9219999999999997e+00 4.2625770374269987e+00 8.3849999999999998e+00 0 0 0
371 1 6.1524999999999999e+00 4.9730065436648339e+00 8.3849999999999998e+00 0 0 0
387 1 6.1524999999999999e+00 6.3938655561404989e+00 8.3849999999999998e+00 0 0 0
389 1 7.3829999999999991e+00 4.2625770374269996e+00 8.3849999999999998e+00 0 0 0
98 1 8.6134999999999984e+00 3.5521475311891662e+00 5.0310000000000006e+00 0 0 0
137 1 8.6135000000000002e+00 6.3938655561404998e+00 5.0310000000000006e+00 0 0 0
139 1 9.8439999999999994e+00 5.6834360499026646e+00 5.0310000000000006e+00 0 0 0
141 1 9.8439999999999994e+00 4.2625770374270004e+00 5.0310000000000006e+00 0 0 0
143 1 1.1074500000000000e+01 3.5521475311891644e+00 5.0310000000000006e+00 0 0 0
189 1 1.1074499999999999e+01 6.3938655561404989e+00 5.0310000000000006e+00 0 0 0
191 1 1.2305000000000000e+01 5.6834360499026646e+00 5.0310000000000006e+00 0 0 0
193 1 1.2305000000000000e+01 4.2625770374269987e+00 5.0310000000000006e+00 0 0 0
390 1 8.6135000000000002e+00 4.9730065436648339e+00 8.3849999999999998e+00 0 0 0
410 1 8.6135000000000002e+00 6.3938655561404998e+00 8.3849999999999998e+00 0 0 0
412 1 9.8439999999999994e+00 4.2625770374270004e+00 8.3849999999999998e+00 0 0 0
413 1 1.1074499999999999e+01 4.9730065436648339e+00 8.3849999999999998e+00 0 0 0
436 1 1.1074499999999999e+01 6.3938655561404989e+00 8.3849999999999998e+00 0 0 0
438 1 1.2305000000000000e+01 4.2625770374269987e+00 8.3849999999999998e+00 0 0 0
20 1 0.0000000000000000e+00 9.9460130873296642e+00 5.0310000000000006e+00 0 0 0
22 1 0.0000000000000000e+00 8.5251540748539991e+00 5.0310000000000006e+00 0 0 0
24 1 1.2304999999999997e+00 7.8147245686161639e+00 5.0310000000000006e+00 0 0 0
49 1 2.4609999999999994e+00 9.9460130873296642e+00 5.0310000000000006e+00 0 0 0
51 1 2.4609999999999994e+00 8.5251540748539991e+00 5.0310000000000006e+00 0 0 0
53 1 3.6914999999999996e+00 7.8147245686161648e+00 5.0310000000000006e+00 0 0 0
343 1 0.0000000000000000e+00 7.1042950623783341e+00 8.3849999999999998e+00 0 0 0
351 1 0.0000000000000000e+00 8.5251540748539991e+00 8.3849999999999998e+00 0 0 0
352 1 1.2304999999999997e+00 9.2355835810918343e+00 8.3849999999999998e+00 0 0 0
354 1 2.4609999999999999e+00 7.1042950623783341e+00 8.3849999999999998e+00 0 0 0
366 1 2.4609999999999994e+00 8.5251540748539991e+00 8.3849999999999998e+00 0 0 0
367 1 3.6915000000000000e+00 9.2355835810918343e+00 8.3849999999999998e+00 0 0 0
86 1 4.9219999999999997e+00 9.9460130873296659e+00 5.0310000000000006e+00 0 0 0
88 1 4.9219999999999997e+00 8.5251540748539991e+00 5.0310000000000006e+00 0 0 0
90 1 6.1524999999999999e+00 7.8147245686161657e+00 5.0310000000000006e+00 0 0 0
131 1 7.3830000000000000e+00 9.9460130873296642e+00 5.0310000000000006e+00 0 0 0
133 1 7.3830000000000000e+00 8.5251540748539991e+00 5.0310000000000006e+00 0 0 0
369 1 4.9219999999999997e+00 7.1042950623783341e+00 8.3849999999999998e+00 0 0 0
385 1 4.9219999999999997e+00 8.5251540748539991e+00 8.3849999999999998e+00 0 0 0
386 1 6.1524999999999999e+00 9.2355835810918343e+00 8.3849999999999998e+00 0 0 0
388 1 7.3830000000000000e+00 7.1042950623783341e+00 8.3849999999999998e+00 0 0 0
408 1 7.3830000000000000e+00 8.5251540748539991e+00 8.3849999999999998e+00 0 0 0
135 1 8.6135000000000002e+00 7.8147245686161639e+00 5.0310000000000006e+00 0 0 0
183 1 9.8439999999999994e+00 9.9460130873296642e+00 5.0310000000000006e+00 0 0 0
185 1 9.8439999999999994e+00 8.5251540748539973e+00 5.0310000000000006e+00 0 0 0
187 1 1.1074500000000000e+01 7.8147245686161648e+00 5.0310000000000006e+00 0 0 0
234 1 1.2305000000000000e+01 9.9460130873296642e+00 5.0310000000000006e+00 0 0 0
236 1 1.2305000000000000e+01 8.5251540748539991e+00 5.0310000000000006e+00 0 0 0
409 1 8.6134999999999984e+00 9.2355835810918343e+00 8.3849999999999998e+00 0 0 0
411 1 9.8439999999999994e+00 7.1042950623783341e+00 8.3849999999999998e+00 0 0 0
434 1 9.8439999999999994e+00 8.5251540748539973e+00 8.3849999999999998e+00 0 0 0
435 1 1.1074499999999999e+01 9.2355835810918343e+00 8.3849999999999998e+00 0 0 0
437 1 1.2305000000000000e+01 7.1042950623783341e+00 8.3849999999999998e+00 0 0 0
459 1 1.2305000000000000e+01 8.5251540748539991e+00 8.3849999999999998e+00 0 0 0
43 1 0.0000000000000000e+00 1.2787731112280998e+01 5.0310000000000006e+00 0 0 0
45 1 1.2304999999999997e+00 1.2077301606043164e+01 5.0310000000000006e+00 0 0 0
47 1 1.2304999999999997e+00 1.0656442593567498e+01 5.0310000000000006e+00 0 0 0
80 1 2.4609999999999999e+00 1.2787731112280998e+01 5.0310000000000006e+00 0 0 0
82 1 3.6914999999999996e+00 1.2077301606043164e+01 5.0310000000000006e+00 0 0 0
84 1 3.6914999999999996e+00 1.0656442593567499e+01 5.0310000000000006e+00 0 0 0
350 1 0.0000000000000000e+00 1.1366872099805333e+01 8.3849999999999998e+00 0 0 0
362 1 0.0000000000000000e+00 1.2787731112280998e+01 8.3849999999999998e+00 0 0 0
363 1 1.2305000000000001e+00 1.3498160618518833e+01 8.3849999999999998e+00 0 0 0
364 1 1.2304999999999997e+00 1.0656442593567498e+01 8.3849999999999998e+00 0 0 0
365 1 2.4609999999999999e+00 1.1366872099805335e+01 8.3849999999999998e+00 0 0 0
381 1 2.4609999999999999e+00 1.2787731112280998e+01 8.3849999999999998e+00 0 0 0
382 1 3.6915000000000000e+00 1.3498160618518833e+01 8.3849999999999998e+00 0 0 0
383 1 3.6914999999999996e+00 1.0656442593567499e+01 8.3849999999999998e+00 0 0 0
125 1 4.9219999999999997e+00 1.2787731112281000e+01 5.0310000000000006e+00 0 0 0
127 1 6.1524999999999999e+00 1.2077301606043164e+01 5.0310000000000006e+00 0 0 0
129 1 6.1524999999999999e+00 1.0656442593567499e+01 5.0310000000000006e+00 0 0 0
177 1 7.3829999999999991e+00 1.2787731112280998e+01 5.0310000000000006e+00 0 0 0
384 1 4.9219999999999997e+00 1.1366872099805333e+01 8.3849999999999998e+00 0 0 0
404 1 4.9219999999999997e+00 1.2787731112281000e+01 8.3849999999999998e+00 0 0 0
405 1 6.1524999999999990e+00 1.3498160618518833e+01 8.3849999999999998e+00 0 0 0
406 1 6.1524999999999999e+00 1.0656442593567499e+01 8.3849999999999998e+00 0 0 0
407 1 7.3829999999999991e+00 1.1366872099805335e+01 8.3849999999999998e+00 0 0 0
430 1 7.3829999999999991e+00 1.2787731112280998e+01 8.3849999999999998e+00 0 0 0
179 1 8.6135000000000002e+00 1.2077301606043164e+01 5.0310000000000006e+00 0 0 0
181 1 8.6134999999999984e+00 1.0656442593567498e+01 5.0310000000000006e+00 0 0 0
228 1 9.8439999999999994e+00 1.2787731112280998e+01 5.0310000000000006e+00 0 0 0
230 1 1.1074499999999999e+01 1.2077301606043164e+01 5.0310000000000006e+00 0 0 0
232 1 1.1074500000000000e+01 1.0656442593567498e+01 5.0310000000000006e+00 0 0 0
271 1 1.2305000000000000e+01 1.2787731112280998e+01 5.0310000000000006e+00 0 0 0
431 1 8.6135000000000002e+00 1.3498160618518835e+01 8.3849999999999998e+00 0 0 0
432 1 8.6134999999999984e+00 1.0656442593567498e+01 8.3849999999999998e+00 0 0 0
433 1 9.8439999999999994e+00 1.1366872099805335e+01 8.3849999999999998e+00 0 0 0
455 1 9.8439999999999994e+00 1.2787731112280998e+01 8.3849999999999998e+00 0 0 0
456 1 1.1074499999999999e+01 1.3498160618518833e+01 8.3849999999999998e+00 0 0 0
457 1 1.1074500000000000e+01 1.0656442593567498e+01 8.3849999999999998e+00 0 0 0
458 1 1.2304999999999998e+01 1.1366872099805333e+01 8.3849999999999998e+00 0 0 0
476 1 1.2305000000000000e+01 1.2787731112280998e+01 8.3849999999999998e+00 0 0 0
6615 2 2.4548920591552523e+00 2.5107868396597719e+00 1.0782350092233683e+01 1 3 1
3940 2 2.4149835329072946e+00 2.9712983159590696e+00 1.3503225695897122e+01 1 1 0
1635 2 4.1954794980285852e+00 1.2273730412548096e+01 1.3904538167976181e+01 1 2 0
5682 2 4.1663483483517991e+00 1.2126446428422513e+01 1.1124075850673400e+01 1 0 0
2952 2 5.2569336823991417e+00 2.6055191014922841e+00 1.3892534847153451e+01 1 -1 0
7259 2 5.1831224425407685e+00 2.5008034282933971e+00 1.0802926154419648e+01 1 1 -1
5608 2 1.3413281942581747e+00 5.3492835790890103e+00 1.3906652057683399e+01 1 0 0
7458 2 1.6828736789103806e+00 5.1975015826005340e+00 1.0929973269844403e+01 1 0 1
5692 2 6.7595766570548106e+00 5.1297882534533459e+00 1.4375873174267074e+01 1 2 0
7217 2 6.3549733776081707e+00 5.0902206995085368e+00 1.1249626411149876e+01 1 -4 -1
5967 2 2.8722787144298474e+00 7.6602903524427726e+00 1.1099801683082729e+01 1 0 0
5026 2 3.0908472560975198e+00 7.7059774355042547e+00 1.3718827986761283e+01 1 0 0
5651 2 1.9920333505440280e+00 1.0574849741140762e+01 1.3656534874868694e+01 1 -2 0
7272 2 2.0867634008009985e+00 1.0309385564621639e+01 1.0731601266302231e+01 1 -1 0
6001 2 6.5002029911332073e+00 1.0892910075099676e+01 1.3715471411369764e+01 1 -1 0
1617 2 6.5726071506457524e+00 1.0592567400058996e+01 1.0947165558641666e+01 1 4 0
4820 2 5.6884793521932577e+00 7.8723729963792941e+00 1.0907985281782983e+01 1 5 0
3881 2 5.9428858818485857e+00 7.9580425284072689e+00 1.3729926147269055e+01 1 4 0
3005 2 7.1439035110603466e-01 7.7216847456309989e-01 1.4045653693512858e+01 1 2 0
5729 2 8.4909923129836906e-01 4.9477053412075284e-01 1.1053534093694131e+01 1 2 0
2210 2 6.7316023299474512e+00 8.9611224460195871e-02 1.0881814083896893e+01 1 1 0
40 1 0.0000000000000000e+00 1.5629449137232333e+01 1.6770000000000000e+00 0 0 0
75 1 1.2305000000000001e+00 1.4919019630994498e+01 1.6770000000000000e+00 0 0 0
77 1 2.4610000000000003e+00 1.5629449137232331e+01 1.6770000000000000e+00 0 0 0
120 1 3.6915000000000000e+00 1.4919019630994498e+01 1.6770000000000000e+00 0 0 0
122 1 4.9219999999999988e+00 1.5629449137232333e+01 1.6770000000000000e+00 0 0 0
172 1 6.1524999999999990e+00 1.4919019630994498e+01 1.6770000000000000e+00 0 0 0
174 1 7.3829999999999991e+00 1.5629449137232333e+01 1.6770000000000000e+00 0 0 0
223 1 8.6135000000000002e+00 1.4919019630994498e+01 1.6770000000000000e+00 0 0 0
225 1 9.8439999999999994e+00 1.5629449137232331e+01 1.6770000000000000e+00 0 0 0
266 1 1.1074499999999999e+01 1.4919019630994498e+01 1.6770000000000000e+00 0 0 0
268 1 1.2305000000000000e+01 1.5629449137232337e+01 1.6770000000000000e+00 0 0 0
69 1 0.0000000000000000e+00 1.9892026174659332e+01 1.6770000000000000e+00 0 0 0
71 1 0.0000000000000000e+00 1.7050308149707998e+01 1.6770000000000000e+00 0 0 0
73 1 1.2305000000000001e+00 1.7760737655945832e+01 1.6770000000000000e+00 0 0 0
112 1 1.2305000000000001e+00 1.9181596668421498e+01 1.6770000000000000e+00 0 0 0
114 1 2.4609999999999994e+00 1.9892026174659332e+01 1.6770000000000000e+00 0 0 0
116 1 2.4610000000000003e+00 1.7050308149707998e+01 1.6770000000000000e+00 0 0 0
118 1 3.6914999999999996e+00 1.7760737655945832e+01 1.6770000000000000e+00 0 0 0
164 1 3.6914999999999996e+00 1.9181596668421498e+01 1.6770000000000000e+00 0 0 0
166 1 4.9219999999999997e+00 1.9892026174659332e+01 1.6770000000000000e+00 0 0 0
168 1 4.9219999999999988e+00 1.7050308149707998e+01 1.6770000000000000e+00 0 0 0
170 1 6.1524999999999999e+00 1.7760737655945832e+01 1.6770000000000000e+00 0 0 0
215 1 6.1524999999999999e+00 1.9181596668421498e+01 1.6770000000000000e+00 0 0 0
217 1 7.3829999999999991e+00 1.9892026174659332e+01 1.6770000000000000e+00 0 0 0
219 1 7.3830000000000000e+00 1.7050308149707998e+01 1.6770000000000000e+00 0 0 0
221 1 8.6134999999999984e+00 1.7760737655945832e+01 1.6770000000000000e+00 0 0 0
258 1 8.6135000000000002e+00 1.9181596668421498e+01 1.6770000000000000e+00 0 0 0
260 1 9.8439999999999994e+00 1.9892026174659335e+01 1.6770000000000000e+00 0 0 0
262 1 9.8439999999999994e+00 1.7050308149707998e+01 1.6770000000000000e+00 0 0 0
264 1 1.1074500000000000e+01 1.7760737655945835e+01 1.6770000000000000e+00 0 0 0
293 1 1.1074499999999999e+01 1.9181596668421498e+01 1.6770000000000000e+00 0 0 0
295 1 1.2305000000000001e+01 1.9892026174659335e+01 1.6770000000000000e+00 0 0 0
297 1 1.2304999999999998e+01 1.7050308149707998e+01 1.6770000000000000e+00 0 0 0
108 1 0.0000000000000000e+00 2.1312885187134999e+01 1.6770000000000000e+00 0 0 0
110 1 1.2304999999999993e+00 2.2023314693372832e+01 1.6770000000000000e+00 0 0 0
156 1 1.2304999999999993e+00 2.3444173705848499e+01 1.6770000000000000e+00 0 0 0
160 1 2.4609999999999994e+00 2.1312885187134995e+01 1.6770000000000000e+00 0 0 0
162 1 3.6914999999999996e+00 2.2023314693372832e+01 1.6770000000000000e+00 0 0 0
207 1 3.6915000000000004e+00 2.3444173705848499e+01 1.6770000000000000e+00 0 0 0
211 1 4.9220000000000006e+00 2.1312885187134995e+01 1.6770000000000000e+00 0 0 0
213 1 6.1524999999999990e+00 2.2023314693372832e+01 1.6770000000000000e+00 0 0 0
250 1 6.1524999999999999e+00 2.3444173705848499e+01 1.6770000000000000e+00 0 0 0
254 1 7.3829999999999991e+00 2.1312885187134999e+01 1.6770000000000000e+00 0 0 0
256 1 8.6135000000000002e+00 2.2023314693372836e+01 1.6770000000000000e+00 0 0 0
285 1 8.6134999999999984e+00 2.3444173705848499e+01 1.6770000000000000e+00 0 0 0
289 1 9.8439999999999994e+00 2.1312885187134999e+01 1.6770000000000000e+00 0 0 0
291 1 1.1074500000000000e+01 2.2023314693372836e+01 1.6770000000000000e+00 0 0 0
312 1 1.1074500000000000e+01 2.3444173705848499e+01 1.6770000000000000e+00 0 0 0
316 1 1.2305000000000000e+01 2.1312885187134999e+01 1.6770000000000000e+00 0 0 0
106 1 0.0000000000000000e+00 2.4154603212086332e+01 1.6770000000000000e+00 0 0 0
152 1 0.0000000000000000e+00 2.5575462224561996e+01 1.6770000000000000e+00 0 0 0
154 1 1.2305000000000001e+00 2.6285891730799833e+01 1.6770000000000000e+00 0 0 0
158 1 2.4609999999999994e+00 2.4154603212086332e+01 1.6770000000000000e+00 0 0 0
203 1 2.4610000000000003e+00 2.5575462224561996e+01 1.6770000000000000e+00 0 0 0
205 1 3.6914999999999987e+00 2.6285891730799833e+01 1.6770000000000000e+00 0 0 0
209 1 4.9219999999999988e+00 2.4154603212086332e+01 1.6770000000000000e+00 0 0 0
246 1 4.9219999999999997e+00 2.5575462224561996e+01 1.6770000000000000e+00 0 0 0
248 1 6.1524999999999999e+00 2.6285891730799836e+01 1.6770000000000000e+00 0 0 0
252 1 7.3830000000000000e+00 2.4154603212086336e+01 1.6770000000000000e+00 0 0 0
281 1 7.3829999999999991e+00 2.5575462224561996e+01 1.6770000000000000e+00 0 0 0
283 1 8.6135000000000019e+00 2.6285891730799836e+01 1.6770000000000000e+00 0 0 0
287 1 9.8440000000000012e+00 2.4154603212086336e+01 1.6770000000000000e+00 0 0 0
308 1 9.8439999999999994e+00 2.5575462224561999e+01 1.6770000000000000e+00 0 0 0
310 1 1.1074500000000000e+01 2.6285891730799833e+01 1.6770000000000000e+00 0 0 0
314 1 1.2305000000000000e+01 2.4154603212086332e+01 1.6770000000000000e+00 0 0 0
327 1 1.2305000000000000e+01 2.5575462224561999e+01 1.6770000000000000e+00 0 0 0
41 1 0.0000000000000000e+00 1.4208590124756665e+01 5.0310000000000006e+00 0 0 0
74 1 1.2305000000000001e+00 1.6339878643470165e+01 5.0310000000000006e+00 0 0 0
76 1 1.2305000000000001e+00 1.4919019630994498e+01 5.0310000000000006e+00 0 0 0
78 1 2.4609999999999999e+00 1.4208590124756665e+01 5.0310000000000006e+00 0 0 0
119 1 3.6915000000000000e+00 1.6339878643470165e+01 5.0310000000000006e+00 0 0 0
121 1 3.6915000000000000e+00 1.4919019630994498e+01 5.0310000000000006e+00 0 0 0
361 1 0.0000000000000000e+00 1.5629449137232333e+01 8.3849999999999998e+00 0 0 0
379 1 1.2305000000000001e+00 1.4919019630994498e+01 8.3849999999999998e+00 0 0 0
380 1 2.4610000000000003e+00 1.5629449137232331e+01 8.3849999999999998e+00 0 0 0
402 1 3.6915000000000000e+00 1.4919019630994498e+01 8.3849999999999998e+00 0 0 0
123 1 4.9219999999999997e+00 1.4208590124756663e+01 5.0310000000000006e+00 0 0 0
171 1 6.1524999999999999e+00 1.6339878643470165e+01 5.0310000000000006e+00 0 0 0
173 1 6.1524999999999990e+00 1.4919019630994498e+01 5.0310000000000006e+00 0 0 0
175 1 7.3830000000000000e+00 1.4208590124756665e+01 5.0310000000000006e+00 0 0 0
403 1 4.9219999999999988e+00 1.5629449137232333e+01 8.3849999999999998e+00 0 0 0
428 1 6.1524999999999990e+00 1.4919019630994498e+01 8.3849999999999998e+00 0 0 0
429 1 7.3829999999999991e+00 1.5629449137232333e+01 8.3849999999999998e+00 0 0 0
222 1 8.6134999999999984e+00 1.6339878643470165e+01 5.0310000000000006e+00 0 0 0
224 1 8.6135000000000002e+00 1.4919019630994498e+01 5.0310000000000006e+00 0 0 0
226 1 9.8439999999999994e+00 1.4208590124756665e+01 5.0310000000000006e+00 0 0 0
265 1 1.1074499999999999e+01 1.6339878643470161e+01 5.0310000000000006e+00 0 0 0
267 1 1.1074499999999999e+01 1.4919019630994498e+01 5.0310000000000006e+00 0 0 0
269 1 1.2304999999999998e+01 1.4208590124756661e+01 5.0310000000000006e+00 0 0 0
453 1 8.6135000000000002e+00 1.4919019630994498e+01 8.3849999999999998e+00 0 0 0
454 1 9.8439999999999994e+00 1.5629449137232331e+01 8.3849999999999998e+00 0 0 0
474 1 1.1074499999999999e+01 1.4919019630994498e+01 8.3849999999999998e+00 0 0 0
475 1 1.2305000000000000e+01 1.5629449137232337e+01 8.3849999999999998e+00 0 0 0
70 1 0.0000000000000000e+00 1.8471167162183665e+01 5.0310000000000006e+00 0 0 0
72 1 0.0000000000000000e+00 1.7050308149707998e+01 5.0310000000000006e+00 0 0 0
113 1 1.2305000000000001e+00 1.9181596668421498e+01 5.0310000000000006e+00 0 0 0
115 1 2.4610000000000003e+00 1.8471167162183662e+01 5.0310000000000006e+00 0 0 0
117 1 2.4610000000000003e+00 1.7050308149707998e+01 5.0310000000000006e+00 0 0 0
165 1 3.6914999999999996e+00 1.9181596668421498e+01 5.0310000000000006e+00 0 0 0
376 1 0.0000000000000000e+00 1.9892026174659332e+01 8.3849999999999998e+00 0 0 0
377 1 0.0000000000000000e+00 1.7050308149707998e+01 8.3849999999999998e+00 0 0 0
378 1 1.2305000000000001e+00 1.7760737655945832e+01 8.3849999999999998e+00 0 0 0
398 1 1.2305000000000001e+00 1.9181596668421498e+01 8.3849999999999998e+00 0 0 0
399 1 2.4609999999999994e+00 1.9892026174659332e+01 8.3849999999999998e+00 0 0 0
400 1 2.4610000000000003e+00 1.7050308149707998e+01 8.3849999999999998e+00 0 0 0
401 1 3.6914999999999996e+00 1.7760737655945832e+01 8.3849999999999998e+00 0 0 0
424 1 3.6914999999999996e+00 1.9181596668421498e+01 8.3849999999999998e+00 0 0 0
167 1 4.9220000000000006e+00 1.8471167162183662e+01 5.0310000000000006e+00 0 0 0
169 1 4.9219999999999988e+00 1.7050308149707998e+01 5.0310000000000006e+00 0 0 0
216 1 6.1524999999999999e+00 1.9181596668421498e+01 5.0310000000000006e+00 0 0 0
218 1 7.3829999999999991e+00 1.8471167162183665e+01 5.0310000000000006e+00 0 0 0
220 1 7.3830000000000000e+00 1.7050308149707998e+01 5.0310000000000006e+00 0 0 0
425 1 4.9219999999999997e+00 1.9892026174659332e+01 8.3849999999999998e+00 0 0 0
426 1 4.9219999999999988e+00 1.7050308149707998e+01 8.3849999999999998e+00 0 0 0
427 1 6.1524999999999999e+00 1.7760737655945832e+01 8.3849999999999998e+00 0 0 0
449 1 6.1524999999999999e+00 1.9181596668421498e+01 8.3849999999999998e+00 0 0 0
450 1 7.3829999999999991e+00 1.9892026174659332e+01 8.3849999999999998e+00 0 0 0
451 1 7.3830000000000000e+00 1.7050308149707998e+01 8.3849999999999998e+00 0 0 0
259 1 8.6135000000000002e+00 1.9181596668421498e+01 5.0310000000000006e+00 0 0 0
261 1 9.8439999999999976e+00 1.8471167162183662e+01 5.0310000000000006e+00 0 0 0