
### Dimensions ###


### IMPORT ATOMS ###
read_data ../Box_Setup/data.Ibeam_240K
  orthogonal box = (0 0 0) to (189.989 26.9999 39.8504)
  15 by 2 by 4 MPI processor grid
  reading atoms ...
  8482 atoms
  reading velocities ...
  8482 velocities
group water type 2
2436 atoms in group water
group graphite type 1
6046 atoms in group graphite


# Define potential
#
pair_style          sw
pair_coeff * * MLC_e.sw C mW

# Add velocity/set timestep
#

fix		1 graphite setforce 0.0 0.0 0.0
velocity 	graphite set 0.0 0.0 0.0
velocity            water create ${START_TEMP} ${SEED} rot yes dist gaussian
velocity            water create 240 ${SEED} rot yes dist gaussian
velocity            water create 240 24821 rot yes dist gaussian
timestep            5.0

# Define output
#
compute 1 water msd
compute 2 water temp


thermo	            100
thermo_style custom step c_2 press vol etotal ke pe c_1[4] density

# Neighbor lists
#
neigh_modify        delay 0 every 1 check yes


# Set fixes
#
fix                 2 water momentum 10 linear 1 1 1 rescale
fix                 3 all nve
fix                 4 water temp/csvr ${START_TEMP} ${START_TEMP} 500.0 928347
fix                 4 water temp/csvr 240 ${START_TEMP} 500.0 928347
fix                 4 water temp/csvr 240 240 500.0 928347

# Run 0.05 ns equilibration
#
dump                1 all custom 100 ${DIR}/eq.${NAME}.dump id type x y z vx vy vz
dump                1 all custom 100 run_27/eq.${NAME}.dump id type x y z vx vy vz
dump                1 all custom 100 run_27/eq.ibeam_cooling_27.dump id type x y z vx vy vz
run                 10000
Neighbor list info ...
  update every 1 steps, delay 0 steps, check yes
  max neighbors/atom: 2000, page size: 100000
  master list distance cutoff = 6.67472
  ghost atom cutoff = 6.67472
  binsize = 3.33736, bins = 57 9 12
  1 neighbor lists, perpetual/occasional/extra = 1 0 0
  (1) pair sw, perpetual
      attributes: full, newton on
      pair build: full/bin/atomonly
      stencil: full/bin/3d
      bin: standard
Per MPI rank memory allocation (min/avg/max) = 0.4705 | 3.837 | 4.747 Mbytes
Step c_2 Press Volume TotEng KinEng PotEng c_1[4] Density 
       0          240   -262.64038    204420.41   -23347.773    1741.9854   -25089.758            0   0.94632332 
     100    242.34511   -108.78017    204420.41   -23364.138    1759.0069   -25123.145   0.84807429   0.94632332 
     200    235.02672   -177.27763    204420.41   -23384.694    1705.8879   -25090.582    1.2612238   0.94632332 
     300    238.42413   -155.02122    204420.41   -23381.285    1730.5473   -25111.832    1.6575047   0.94632332 
     400    236.47091   -155.50017    204420.41   -23387.282    1716.3703   -25103.653    2.0044433   0.94632332 
     500    242.06929   -321.12901    204420.41   -23364.085    1757.0049    -25121.09    2.3659524   0.94632332 
     600    244.18713   -562.30082    204420.41   -23290.584    1772.3767   -25062.961    2.7484663   0.94632332 
     700    246.52768   -392.70877    204420.41    -23300.47    1789.3651   -25089.835    3.0963912   0.94632332 
     800     242.2903   -385.88113    204420.41   -23304.238     1758.609   -25062.847    3.5303332   0.94632332 
     900    243.58493   -419.47933    204420.41   -23325.237    1768.0058   -25093.243    3.8492869   0.94632332 
    1000    240.79723   -300.62489    204420.41   -23353.119    1747.7719   -25100.891    4.1310693   0.94632332 
    1100    242.68433   -164.15842    204420.41   -23332.431     1761.469     -25093.9    4.3898686   0.94632332 
    1200    236.54883   -214.46747    204420.41   -23336.983    1716.9359   -25053.919     4.699044   0.94632332 
    1300    250.24188   -304.22544    204420.41   -23297.084    1816.3237   -25113.407    4.9697725   0.94632332 
    1400    239.30814   -489.92922    204420.41   -23325.355    1736.9637   -25062.319     5.284724   0.94632332 
    1500    243.65785   -335.70144    204420.41   -23356.236     1768.535   -25124.771    5.4687562   0.94632332 
    1600    236.30402   -355.98858    204420.41    -23342.57     1715.159   -25057.729    5.6964245   0.94632332 
    1700     243.3569   -257.73293    204420.41    -23356.53    1766.3507    -25122.88    5.9689302   0.94632332 
    1800    242.16963   -196.03319    204420.41   -23328.223    1757.7332   -25085.956    6.2940242   0.94632332 
    1900    235.54777    -390.9214    204420.41   -23299.004    1709.6699   -25008.674    6.6440873   0.94632332 
    2000    246.75812   -321.51025    204420.41   -23266.343    1791.0377   -25057.381    6.9283864   0.94632332 
    2100    244.88856   -252.93149    204420.41   -23380.579    1777.4679   -25158.047     7.103162   0.94632332 
    2200    243.97487   -198.78396    204420.41   -23364.993    1770.8361   -25135.829    7.5582969   0.94632332 
    2300    243.42405   -223.17223    204420.41   -23347.464    1766.8381   -25114.302    8.0373943   0.94632332 
    2400    240.14627    -352.2027    204420.41   -23353.159    1743.0471   -25096.206    8.4660072   0.94632332 
    2500    239.22469   -454.30958    204420.41   -23387.703     1736.358   -25124.061    8.9440886   0.94632332 
    2600    233.15649   -517.33724    204420.41   -23402.573    1692.3133   -25094.886    9.3577852   0.94632332 
    2700    241.74405   -413.87418    204420.41   -23392.139    1754.6442   -25146.783    9.5358343   0.94632332 
    2800    240.78012   -309.23947    204420.41   -23346.433    1747.6477   -25094.081    9.7993948   0.94632332 
    2900    248.10425    -240.6438    204420.41   -23359.847    1800.8082   -25160.655    9.9643401   0.94632332 
    3000    246.04007   -240.67651    204420.41   -23362.385    1785.8259   -25148.211    10.167348   0.94632332 
    3100    249.23902   -329.99273    204420.41   -23352.509    1809.0447   -25161.553    10.313109   0.94632332 
    3200    236.72182   -245.96502    204420.41   -23418.084    1718.1914   -25136.275    10.573693   0.94632332 
    3300    238.40231   -391.35859    204420.41   -23492.027    1730.3889   -25222.416    10.886592   0.94632332 
    3400    243.52236   -53.703165    204420.41   -23440.212    1767.5517   -25207.764    11.055872   0.94632332 
    3500    236.56657    -225.0582    204420.41   -23433.002    1717.0646   -25150.067    11.345131   0.94632332 
    3600    230.01735    -362.2748    204420.41   -23419.722    1669.5286    -25089.25    11.799934   0.94632332 
    3700    239.85943   -259.56808    204420.41   -23377.223    1740.9651   -25118.188    12.096911   0.94632332 
    3800    235.54172   -282.47545    204420.41   -23350.612     1709.626   -25060.238    12.280576   0.94632332 
    3900    237.68658    -402.0152    204420.41   -23344.392    1725.1939   -25069.586    12.456271   0.94632332 
    4000    242.81339   -389.54959    204420.41   -23377.539    1762.4057   -25139.945    12.849797   0.94632332 
    4100    239.94423   -431.80782    204420.41    -23356.62    1741.5806     -25098.2    12.969578   0.94632332 
    4200    244.59056   -220.04855    204420.41   -23332.571    1775.3049   -25107.876    13.321578   0.94632332 
    4300    234.91512   -236.67266    204420.41   -23391.632     1705.078    -25096.71    13.561752   0.94632332 
    4400    240.79636   -226.25923    204420.41   -23342.128    1747.7656   -25089.893    14.076205   0.94632332 
    4500    235.90126   -279.83566    204420.41   -23372.088    1712.2356   -25084.324    14.461994   0.94632332 
    4600    241.37373   -349.06548    204420.41   -23408.854    1751.9563    -25160.81      14.7723   0.94632332 
    4700    240.55543   -268.51942    204420.41   -23343.159    1746.0169   -25089.176    14.963287   0.94632332 
    4800    241.89907   -300.50086    204420.41   -23313.234    1755.7693   -25069.003    14.999694   0.94632332 
    4900    241.41616   -442.02633    204420.41    -23270.16    1752.2642   -25022.424    15.372692   0.94632332 
    5000    236.59985   -360.85139    204420.41   -23328.103    1717.3061   -25045.409    15.544793   0.94632332 
    5100    243.96629   -182.70367    204420.41   -23294.086    1770.7738    -25064.86     15.76806   0.94632332 
    5200    238.64812   -150.37028    204420.41   -23344.998    1732.1731   -25077.171    16.157021   0.94632332 
    5300    235.45885   -246.38056    204420.41   -23423.535    1709.0245   -25132.559    16.603684   0.94632332 
    5400    240.45933    -369.7593    204420.41   -23403.414    1745.3193   -25148.733    17.010515   0.94632332 
    5500    242.32932   -344.03928    204420.41   -23395.006    1758.8922   -25153.898    17.444701   0.94632332 
    5600    235.19808   -341.78858    204420.41   -23405.839    1707.1317   -25112.971    17.694818   0.94632332 
    5700    236.00396   -384.45579    204420.41   -23381.182    1712.9811   -25094.163    17.917169   0.94632332 
    5800    237.54046   -390.50677    204420.41   -23357.617    1724.1334   -25081.751    18.275468   0.94632332 
    5900    241.58977   -176.14415    204420.41   -23387.919    1753.5244   -25141.444    18.708041   0.94632332 
    6000    235.71746   -123.49609    204420.41   -23413.469    1710.9016   -25124.371    19.028492   0.94632332 
    6100    238.60469   -236.42314    204420.41   -23422.954    1731.8579   -25154.812    19.326963   0.94632332 
    6200    235.74693   -246.34617    204420.41    -23433.89    1711.1154   -25145.005    19.477745   0.94632332 
    6300    245.85282   -376.62563    204420.41     -23354.8    1784.4668   -25139.267    19.821505   0.94632332 
    6400     238.9465   -463.91496    204420.41   -23387.332    1734.3388   -25121.671    20.261389   0.94632332 
    6500    240.48031   -240.86857    204420.41   -23398.498    1745.4716   -25143.969    20.456718   0.94632332 
    6600    236.23249   -258.81297    204420.41   -23400.737    1714.6398   -25115.377    20.872976   0.94632332 
    6700    234.64092   -372.17337    204420.41   -23418.103    1703.0877   -25121.191    21.060554   0.94632332 
    6800    236.44617   -224.82129    204420.41   -23392.741    1716.1907   -25108.931    21.297356   0.94632332 
    6900    244.52857    -395.4248    204420.41   -23351.297     1774.855   -25126.152    21.609761   0.94632332 
    7000     241.0974   -321.48515    204420.41   -23360.874    1749.9506   -25110.824    22.147202   0.94632332 
    7100    234.57953   -173.64946    204420.41   -23363.389    1702.6421   -25066.031    22.529244   0.94632332 
    7200    228.96625   -378.01097    204420.41   -23404.108    1661.8994   -25066.007     22.67297   0.94632332 
    7300    232.08451    -425.7421    204420.41    -23421.27    1684.5326   -25105.803    23.152563   0.94632332 
    7400    235.64997   -380.34011    204420.41   -23382.215    1710.4117   -25092.627    23.669094   0.94632332 
    7500    232.76347   -245.36573    204420.41     -23350.8    1689.4607   -25040.261    24.083526   0.94632332 
    7600    239.65601   -444.08359    204420.41   -23298.012    1739.4886   -25037.501    24.560959   0.94632332 
    7700    243.36723    -252.1878    204420.41   -23297.329    1766.4257   -25063.755    24.852513   0.94632332 
    7800    233.20119   -434.19458    204420.41   -23362.048    1692.6378   -25054.686    24.902323   0.94632332 
    7900    235.22269   -309.04514    204420.41    -23320.42    1707.3104   -25027.731    24.851143   0.94632332 
    8000    243.95295   -275.94733    204420.41    -23258.51     1770.677   -25029.187    25.032057   0.94632332 
    8100    246.48717   -99.239215    204420.41   -23256.186     1789.071   -25045.257    25.638604   0.94632332 
    8200    237.50606   -352.86782    204420.41   -23274.375    1723.8837   -24998.258    26.009439   0.94632332 
    8300    242.02344   -278.34224    204420.41   -23230.265     1756.672   -24986.937    26.450257   0.94632332 
    8400    242.23856   -478.02342    204420.41   -23208.005    1758.2335   -24966.239    26.467692   0.94632332 
    8500    243.90789   -268.71518    204420.41    -23259.89    1770.3499    -25030.24    26.542932   0.94632332 
    8600    237.99948   -133.19564    204420.41   -23276.101    1727.4651   -25003.566    27.187879   0.94632332 
    8700    235.12465   -367.15965    204420.41    -23309.39    1706.5988   -25015.988    27.697032   0.94632332 
    8800    242.52613    -176.5928    204420.41   -23320.235    1760.3208   -25080.556    28.037349   0.94632332 
    8900    241.95099   -219.31662    204420.41     -23362.8    1756.1462   -25118.946    28.303727   0.94632332 
    9000    246.26679   -172.68775    204420.41   -23331.826    1787.4714   -25119.297    28.433663   0.94632332 
    9100    240.29098   -169.26984    204420.41   -23372.392    1744.0974    -25116.49    28.841585   0.94632332 
    9200    241.67793   -290.54829    204420.41   -23332.125    1754.1643   -25086.289    29.126209   0.94632332 
    9300    235.02315   -324.62527    204420.41   -23405.987    1705.8621   -25111.849    29.686524   0.94632332 
    9400    239.58968   -475.49776    204420.41   -23377.906    1739.0072   -25116.913     30.37467   0.94632332 
    9500      232.889   -406.22423    204420.41   -23385.427    1690.3718   -25075.799    30.588966   0.94632332 
    9600    237.75945    -576.6351    204420.41   -23385.703    1725.7229   -25111.425    30.603655   0.94632332 
    9700    235.95931   -592.92109    204420.41   -23361.351     1712.657   -25074.008    30.760257   0.94632332 
    9800    240.41458   -420.99918    204420.41   -23299.348    1744.9945   -25044.343    30.942122   0.94632332 
    9900    241.20552   -285.69589    204420.41    -23327.16    1750.7354   -25077.895     31.26106   0.94632332 
   10000    236.01581   -419.04489    204420.41    -23333.03    1713.0671   -25046.097     31.68738   0.94632332 
Loop time of 16.9153 on 120 procs for 10000 steps with 8482 atoms

Performance: 255.389 ns/day, 0.094 hours/ns, 591.179 timesteps/s
97.9% CPU use with 120 MPI tasks x no OpenMP threads

MPI task timing breakdown:
Section |  min time  |  avg time  |  max time  |%varavg| %total
---------------------------------------------------------------
Pair    | 0.00044131 | 4.3699     | 14.101     | 249.3 | 25.83
Neigh   | 0.0003736  | 0.12939    | 0.49142    |  42.8 |  0.76
Comm    | 0.011291   | 4.6581     | 13.274     | 240.7 | 27.54
Output  | 0.15362    | 0.15377    | 0.1604     |   0.2 |  0.91
Modify  | 0.67296    | 7.4757     | 16.627     | 263.0 | 44.19
Other   |            | 0.1285     |            |       |  0.76

Nlocal:    70.6833 ave 226 max 0 min
Histogram: 48 2 40 0 0 0 0 0 12 18
Nghost:    610.283 ave 1012 max 0 min
Histogram: 12 4 0 4 5 30 19 12 21 13
Neighs:    0 ave 0 max 0 min
Histogram: 120 0 0 0 0 0 0 0 0 0
FullNghs:  7080.37 ave 28398 max 0 min
Histogram: 65 25 0 0 0 0 0 5 13 12

Total # of neighbors = 849644
Ave neighs/atom = 100.17
Neighbor list builds = 580
Dangerous builds = 0
write_data 	    ${DIR}/data.${NAME}_eq
write_data 	    run_27/data.${NAME}_eq
write_data 	    run_27/data.ibeam_cooling_27_eq

undump              1
unfix               4



################################################
#######         Run Simulation         #########
################################################

reset_timestep      0
timestep	    10.0
log                 ${DIR}/log.run_${NAME}
log                 run_27/log.run_${NAME}
log                 run_27/log.run_ibeam_cooling_27
