
# Set production fixes - Nose/Hoover
#
fix                 4 water temp/csvr ${START_TEMP} ${END_TEMP} 500.0 928347
fix                 4 water temp/csvr 240 ${END_TEMP} 500.0 928347
fix                 4 water temp/csvr 240 227 500.0 928347


## divide "droplet" into core and surface
#region		core_reg cylinder z 135 135 44.6 20 INF units box
#region		surface_reg cylinder z 135 135 44.6 20 INF units box side out
#group		core dynamic all region core_reg
#group		surface dynamic all region surface_reg

## compute pressure core
#compute        peratom_core core stress/atom NULL
#compute        p_core core reduce sum c_peratom_core[1] c_peratom_core[2] c_peratom_core[3]
#variable       press_core equal -(c_p_core[1]+c_p_core[2]+c_p_core[3])/(3*1249982.5)


## compute pressure surface
#compute        peratom_surf surface stress/atom NULL
#compute        p_surf surface reduce sum c_peratom_surf[1] c_peratom_surf[2] #c_peratom_surf[3]
#variable       press_surf equal -(c_p_surf[1]+c_p_surf[2]+c_p_surf[3])/(3*42395)

## compute total pressure of drop
compute        peratom water stress/atom NULL
compute        p water reduce sum c_peratom[1] c_peratom[2] c_peratom[3]
variable       press equal -(c_p[1]+c_p[2]+c_p[3])/(3*58301)


# compute order parameter
compute        3 all orientorder/atom nnn NULL cutoff 3.5

# compute center of mass of bridge
compute 	4 water com

# Run simulation
thermo_style        custom step c_2 press vol etotal ke pe v_press c_1[4] c_4[*]
thermo              200
dump		     1 water custom 400 ${DIR}/prod.${NAME}.dump id type x y z vx vy vz c_3[*] c_peratom[*]
dump		     1 water custom 400 run_27/prod.${NAME}.dump id type x y z vx vy vz c_3[*] c_peratom[*]
dump		     1 water custom 400 run_27/prod.ibeam_cooling_27.dump id type x y z vx vy vz c_3[*] c_peratom[*]
run                 ${STEPS}
run                 5200000
Neighbor list info ...
  update every 1 steps, delay 0 steps, check yes
  max neighbors/atom: 2000, page size: 100000
  master list distance cutoff = 6.67472
  ghost atom cutoff = 6.67472
  binsize = 3.33736, bins = 57 9 12
  2 neighbor lists, perpetual/occasional/extra = 1 1 0
  (1) pair sw, perpetual
      attributes: full, newton on
      pair build: full/bin/atomonly
      stencil: full/bin/3d
      bin: standard
  (2) compute orientorder/atom, occasional, copy from (1)
      attributes: full, newton on
      pair build: copy
      stencil: none
      bin: none
Per MPI rank memory allocation (min/avg/max) = 0.8617 | 6.064 | 7.152 Mbytes
Step c_2 Press Volume TotEng KinEng PotEng v_press c_1[4] c_4[1] c_4[2] c_4[3] 
       0    236.01581   -419.04489    204420.41    -23333.03    1713.0671   -25046.097   -937.69327     31.68738    95.094486    14.531956    27.919386 
     200    238.12832   -238.82908    204420.41   -23349.046    1728.4002   -25077.446   -301.24727    33.033413    95.094136    14.529335    27.910013 
     400    242.08582   -454.19806    204420.41   -23329.929    1757.1249   -25087.054   -1042.5537    34.915603    95.094182    14.527002    27.948617 
     600    245.62134   -339.21904    204420.41   -23204.907    1782.7866   -24987.694   -690.76429    36.435626    95.093197    14.526225    27.950274 
     800    239.17616   -377.67313    204420.41   -23179.672    1736.0058   -24915.678   -775.41647    38.367386    95.092459    14.524243    27.929161 
    1000    235.69331   -205.50546    204420.41   -23217.346    1710.7262   -24928.072   -199.14935    40.612822    95.092809    14.521272    27.940085 
    1200    234.52231   -413.79557    204420.41   -23200.822    1702.2268   -24903.049   -908.85379    42.873143    95.091056    14.519137    27.936776 
    1400    240.54149   -262.02786    204420.41   -23195.764    1745.9157   -24941.679   -391.83754    43.828093    95.091827    14.517544    27.899678 
    1600    245.61693   -506.79306    204420.41   -23171.496    1782.7546   -24954.251   -1274.7038    45.740328    95.091139    14.520032    27.896975 
    1800    241.13514   -335.79577    204420.41   -23162.843    1750.2245   -24913.068   -683.79316     48.48784     95.09257    14.521537    27.900806 
    2000    246.92359    -346.3695    204420.41   -23118.476    1792.2387   -24910.715   -733.06973    50.697509    95.094006    14.521046    27.900371 
    2200    238.94082   -403.43647    204420.41   -23232.863    1734.2976   -24967.161   -878.75731    52.963467    95.091797     14.52408    27.906933 
    2400    241.20017   -313.61743    204420.41   -23191.188    1750.6966   -24941.885   -606.14284    55.638806     95.09213    14.526218    27.906571 
    2600    237.22937   -306.86776    204420.41   -23215.438    1721.8754   -24937.314   -526.17097    56.836861    95.092828    14.525851    27.887857 
    2800    243.14318   -402.86633    204420.41   -23099.613    1764.7994   -24864.412   -887.83358    58.356775    95.093615    14.524733    27.904325 
    3000     243.3264   -326.03747    204420.41   -23127.849    1766.1293   -24893.979   -616.97317    58.112076    95.094291    14.526436    27.897677 
    3200    235.55146   -265.23575    204420.41   -23208.969    1709.6967   -24918.666   -446.42681    58.057886    95.093195    14.524928    27.897967 
    3400    241.21014   -441.88861    204420.41   -23197.926    1750.7689   -24948.695    -1018.343    59.464796    95.092091    14.524615    27.887737 
    3600    242.08126    -335.0874    204420.41   -23232.956    1757.0917   -24990.047   -649.02791     61.02287    95.093038     14.52487    27.884709 
    3800     242.3624    -323.0209    204420.41   -23187.323    1759.1323   -24946.456   -630.26185    63.399842    95.091667    14.525153    27.898116 
    4000    239.41719   -206.65911    204420.41   -23238.952    1737.7552   -24976.707     -232.715    64.558102    95.090791    14.526441    27.919175 
    4200    236.57663   -238.72838    204420.41   -23178.694    1717.1376   -24895.831   -278.18896    66.786648    95.088815    14.527021    27.931417 
    4400    244.36233   -314.81126    204420.41   -23192.494    1773.6484   -24966.142   -531.80859    68.471653    95.089006    14.527155    27.942882 
    4600    234.98251    -247.6774    204420.41   -23292.789    1705.5671   -24998.356   -314.40112    70.560711    95.087994    14.528741    27.941784 
    4800    245.54179    -253.5792    204420.41   -23184.198    1782.2092   -24966.408    -352.8385    74.413181    95.089632    14.529418     27.94442 
    5000    241.38181   -300.03926    204420.41   -23226.782     1752.015   -24978.797   -523.21827    76.339587    95.087472    14.530107    27.969452 
    5200    237.18021   -422.64491    204420.41   -23221.253    1721.5186   -24942.772   -888.49955    77.612511    95.089547    14.530614    27.983752 
    5400    245.49225   -197.27223    204420.41   -23293.471    1781.8496    -25075.32   -156.81069    77.132617    95.090214    14.528993    27.981377 
    5600    238.00923    -343.9347    204420.41   -23303.262    1727.5359   -25030.798   -667.01224    77.686327    95.089675    14.526309    27.974985 
    5800    237.77396   -422.31331    204420.41   -23233.167    1725.8282   -24958.995   -955.51388    79.341163    95.089276     14.52783    27.966181 
    6000    240.36268   -344.07198    204420.41   -23230.333    1744.6178    -24974.95    -663.9913    80.506105    95.090156    14.527134    27.952212 
    6200    236.35056   -554.45427    204420.41   -23248.468    1715.4968   -24963.965   -1416.7547    80.678825    95.090611     14.52878    27.943459 
    6400    238.29635   -256.38168    204420.41   -23259.111    1729.6199   -24988.731   -363.34552    82.137438    95.090266     14.52977    27.908989 
    6600    234.29163   -225.61484    204420.41   -23265.219    1700.5525   -24965.771   -269.59296    83.650428    95.089504    14.530441    27.913879 
    6800    237.34955   -293.07426    204420.41   -23237.817    1722.7477   -24960.565   -478.20789    85.477169    95.091204    14.528192    27.934344 
    7000    239.51619   -240.12077    204420.41   -23176.419    1738.4738   -24914.892   -341.15447    86.200862     95.09104    14.531559    27.943602 
    7200    240.25283   -367.78718    204420.41    -23307.92    1743.8205    -25051.74   -747.98158    87.670704    95.090362    14.527851    27.936113 
    7400    235.14993   -335.02546    204420.41   -23259.766    1706.7823   -24966.548   -632.47426    89.041128    95.091688     14.52403    27.943546 
    7600    245.06471   -512.49793    204420.41   -23179.621    1778.7464   -24958.368   -1257.6967    90.380132    95.092559    14.524598    27.945713 
    7800    232.01562   -413.09115    204420.41   -23293.551    1684.0326   -24977.584   -913.85507    93.059699    95.092739    14.522866    27.962169 
    8000    240.87043   -120.63325    204420.41   -23152.283    1748.3032   -24900.587    94.397907    94.262518    95.091527    14.523721    27.966786 
    8200    242.41908   -438.01382    204420.41   -23178.293    1759.5437   -24937.836    -1007.197    95.946419    95.090161    14.524426    27.961521 
    8400    245.87191   -379.63336    204420.41   -23134.042    1784.6053   -24918.648   -854.80376    96.678364    95.092381    14.524415    27.971772 
    8600     243.9905    -270.8839    204420.41    -23199.88    1770.9495    -24970.83   -389.30333    96.974241    95.092485     14.52414    27.953993 
    8800    238.75621   -289.27027    204420.41    -23203.45    1732.9576   -24936.408   -497.21931    98.290663    95.091619    14.520079     27.93232 
    9000    243.00711   -327.50148    204420.41   -23186.347    1763.8118   -24950.159   -641.95282    100.67937    95.092361    14.518914    27.908277 
    9200    242.17337   -347.24138    204420.41   -23180.489    1757.7603    -24938.25   -717.82257    102.84001    95.092186    14.518399    27.906783 
    9400    235.55333   -451.89396    204420.41    -23237.62    1709.7103    -24947.33   -1102.4567    103.47533    95.093382    14.517387    27.897512 
    9600    238.54945    -360.8873    204420.41   -23258.995    1731.4569   -24990.452   -749.51983    104.69989     95.09133    14.513457    27.894095 
    9800    244.91219   -185.98992    204420.41   -23155.161    1777.6394     -24932.8   -148.10117    105.59408    95.090124    14.509306    27.906927 
   10000    237.60379   -483.21168    204420.41   -23223.516    1724.5931   -24948.109   -1154.3459    105.99236    95.088924    14.510721    27.894249 
   10200    245.99019    -374.3083    204420.41   -23144.273    1785.4638   -24929.737   -799.82911    107.58551    95.089263    14.509908    27.898863 
   10400    245.27131   -258.55742    204420.41   -23188.999     1780.246   -24969.245   -376.56495    110.02515    95.088232    14.512131    27.896602 
   10600    237.56944   -350.79394    204420.41   -23246.831    1724.3437   -24971.175   -720.48058     111.6062    95.085482    14.511961    27.909332 
   10800    233.24709   -345.13158    204420.41   -23298.948    1692.9709   -24991.919   -698.09337     113.9521    95.084221    14.509497    27.903357 
   11000    235.09347   -308.85448    204420.41   -23292.421    1706.3725   -24998.794   -563.80408    115.76742    95.083908    14.509374    27.897402 
   11200    236.07985   -156.33334    204420.41   -23272.827    1713.5319   -24986.359    -18.99021    116.56889    95.085528    14.509815    27.898012 
   11400    241.66385   -414.39651    204420.41    -23262.16    1754.0621   -25016.223   -908.04115    120.29055    95.087623    14.509149    27.913827 
   11600    239.53665   -285.52016    204420.41   -23158.627    1738.6223   -24897.249   -460.18746    121.60236    95.088561    14.507888    27.936279 
   11800    236.83743   -204.37857    204420.41   -23175.311    1719.0306   -24894.341   -214.54923    122.91532    95.091151    14.510965    27.928058 
   12000    240.32766   -431.81205    204420.41   -23164.951    1744.3637   -24909.315   -1024.7415    125.06735    95.090952    14.514093    27.931109 
   12200    244.44384   -470.76181    204420.41    -23173.38      1774.24    -24947.62   -1143.6725    125.45973    95.089591    14.514999    27.919099 
   12400    244.11117   -286.01615    204420.41   -23203.477    1771.8254   -24975.302   -453.25423    125.20184    95.090136    14.515935    27.918772 
   12600    248.41966   -311.35365    204420.41   -23162.659    1803.0976   -24965.756   -552.37226    125.50151    95.091179    14.514099     27.91878 
   12800    244.68998    -533.5083    204420.41   -23218.334    1776.0266   -24994.361   -1344.3312    125.94153     95.08941    14.512917    27.926905 
   13000    236.36061   -343.22483    204420.41   -23265.665    1715.5697   -24981.235   -685.17797    125.86845    95.091177    14.514172    27.924279 
   13200     241.4323   -342.80864    204420.41    -23303.02    1752.3814   -25055.401   -657.87967    127.27817    95.089745    14.513601    27.936834 
   13400    236.85319   -344.26229    204420.41   -23371.325     1719.145    -25090.47   -700.09939     129.6946    95.090684    14.515252    27.943996 
   13600    236.77211   -428.03188    204420.41   -23306.452    1718.5565   -25025.009   -970.11526    131.40714    95.092588    14.515292    27.971386 
   13800    240.19544   -204.98167    204420.41   -23223.438     1743.404   -24966.842   -215.27043    132.03681      95.0916    14.518031    27.967201 
   14000    248.51934   -189.97959    204420.41   -23129.508    1803.8211    -24933.33   -177.14933    132.05148    95.092505    14.521157    27.974792 
   14200    236.10435   -467.41796    204420.41   -23186.837    1713.7097   -24900.547   -1141.4801    132.79736    95.093122     14.52406    27.953393 
   14400     243.9243   -322.31397    204420.41   -23274.375     1770.469   -25044.844   -607.74142     133.1648    95.095178    14.523823    27.929754 
   14600    238.93405   -407.74444    204420.41   -23267.975    1734.2484   -25002.224   -926.23254    135.05257    95.095336    14.526826    27.906261 
   14800    242.50924   -283.98713    204420.41   -23213.658    1760.1982   -24973.856    -457.5159    137.01384    95.096901    14.529318    27.901996 
   15000    240.85011   -137.79329    204420.41   -23222.359    1748.1557   -24970.515     10.74838    136.74468    95.097857    14.530679    27.882539 
   15200    240.12798   -377.20486    204420.41   -23162.555    1742.9143   -24905.469   -784.27075    137.70372    95.095791    14.529895     27.89662 
   15400    236.14794   -232.50356    204420.41   -23201.499    1714.0261   -24915.526    -310.9999    140.58997    95.096562     14.53229    27.884348 
   15600    244.34425   -409.14625    204420.41   -23054.491    1773.5172   -24828.008   -934.51831    142.83373    95.096695    14.530852    27.905829 
   15800    242.76337   -472.57879    204420.41     -23080.3    1762.0427   -24842.343   -1106.8196    144.68091    95.096557    14.528031    27.901167 
   16000    237.13985   -180.94188    204420.41   -23134.039    1721.2256   -24855.265    -114.1363     147.6334     95.09518    14.526104     27.91977 
   16200    240.95164   -264.99628    204420.41   -23116.625    1748.8926   -24865.518   -385.76406    149.75171    95.094962    14.526446    27.904214 
   16400     236.5869   -339.90712    204420.41   -23177.408    1717.2122    -24894.62   -687.85754    151.40336    95.094893    14.521168    27.910083 
   16600    246.17504   -306.49644    204420.41   -23090.208    1786.8056   -24877.014   -527.14953    155.79347    95.093357    14.522579    27.900761 
   16800    235.10238   -323.55417    204420.41   -23189.849    1706.4371   -24896.286   -653.83429    157.95441    95.094496    14.523556    27.890538 
   17000    233.17102   -274.63885    204420.41   -23224.109    1692.4188   -24916.528   -406.96376    159.57395     95.09567    14.523446    27.883353 
   17200    240.35477   -444.47619    204420.41   -23227.666    1744.5604   -24972.226   -1033.2734    162.43758    95.095345     14.52322    27.877201 
   17400    235.72586   -378.98936    204420.41   -23329.744    1710.9625   -25040.707   -836.56924    164.20051    95.094359    14.520356    27.889958 
   17600    238.52203      -250.48    204420.41   -23261.168    1731.2579   -24992.425   -348.04395    166.55489    95.094963    14.519785    27.883765 
   17800    241.80532   -207.29934    204420.41   -23279.139    1755.0889   -25034.228   -226.81029    167.49805     95.09445    14.519465    27.901927 
   18000    241.44111   -265.93583    204420.41   -23234.072    1752.4454   -24986.517   -402.13841    168.41329    95.093055    14.518678    27.910194 
   18200    243.21198   -321.07173    204420.41   -23264.937    1765.2988   -25030.236   -613.54995    169.98828    95.093152    14.518126    27.896554 
   18400    242.09506   -261.78516    204420.41   -23244.701    1757.1919   -25001.893   -394.55302    170.39795    95.092214    14.515518    27.915989 
   18600    246.35362   -316.28265    204420.41    -23209.99    1788.1017   -24998.092   -557.81613     170.5433    95.092179    14.515139    27.895126 
   18800     237.4135   -348.85137    204420.41   -23268.751    1723.2118   -24991.963   -718.11939    172.00309    95.092984    14.514885    27.891213 
   19000    245.80789   -407.67265    204420.41    -23215.83    1784.1407   -24999.971   -920.02224    174.10336    95.094906    14.517944    27.908559 
   19200    237.97136   -371.43948    204420.41   -23238.151    1727.2609   -24965.412   -755.08651    175.28951    95.094296    14.521782    27.920297 
   19400     243.7026   -348.43724    204420.41   -23175.788    1768.8599   -24944.647   -669.62137    174.78616    95.094928    14.521719    27.914451 
   19600    241.75368   -165.63476    204420.41    -23208.72    1754.7141   -24963.434   -69.552242    176.19853    95.093613    14.523347    27.915882 
   19800    237.11324    -398.2701    204420.41   -23192.711    1721.0325   -24913.743   -854.67931    177.41006    95.096017      14.5233    27.912442 
   20000     239.0689   -453.01706    204420.41   -23193.531    1735.2272   -24928.759   -1060.7894    177.59222    95.095036    14.520836    27.909705 
   20200    233.65948   -181.24466    204420.41   -23297.167    1695.9642   -24993.131   -82.562999    178.30951    95.094411     14.51975    27.892122 
   20400    244.00329    -416.3484    204420.41   -23163.726    1771.0424   -24934.769   -954.63134    180.65329    95.094467    14.518736     27.90283 
   20600    237.11622   -234.11622    204420.41   -23292.293    1721.0541   -25013.347   -372.99129    181.96098     95.09437     14.51785    27.897588 
   20800    247.28887   -491.16876    204420.41   -23193.198      1794.89   -24988.088   -1192.7926    184.73586    95.093527    14.513741    27.904524 
   21000    241.65134   -255.50356    204420.41   -23216.323    1753.9713   -24970.294   -381.19672    184.61378    95.094088    14.511254    27.894024 
   21200    234.50003    -389.1972    204420.41   -23189.224    1702.0651   -24891.289   -796.14062    185.77746    95.093895    14.514672    27.904822 
   21400    235.33333   -372.21791    204420.41   -23194.767    1708.1134   -24902.881   -796.68827    187.21797    95.094326    14.519545    27.903233 
   21600    239.29602   -297.69846    204420.41   -23096.892    1736.8757   -24833.768   -514.63958    188.69779     95.09186    14.520936     27.91554 
   21800    232.64481    -359.4763    204420.41   -23185.294    1688.5994   -24873.893    -718.8512    191.25602    95.091623     14.51896    27.910799 
   22000    240.26526    -460.3769    204420.41   -23227.006    1743.9107   -24970.916   -1093.3034    194.61953    95.090976    14.518868    27.893956 
   22200    236.99248   -398.22085    204420.41   -23292.049     1720.156   -25012.205   -870.62575    195.78469    95.089386    14.518458    27.876863 
   22400    242.66657   -191.15719    204420.41   -23154.958    1761.3401   -24916.299   -132.11833    196.41437    95.088153    14.518322    27.875744 
   22600    243.62168   -352.10843    204420.41   -23221.215    1768.2725   -24989.488   -712.32092    197.48986    95.088217    14.519057    27.855909 
   22800    244.57998   -497.41841    204420.41   -23204.777    1775.2281   -24980.005   -1192.4394    199.40096    95.088952    14.516298    27.866269 
   23000    230.10522   -414.02863    204420.41   -23289.121    1670.1664   -24959.287   -947.72013    201.24006    95.088896    14.515983    27.857967 
   23200    244.27547    -453.5258    204420.41   -23198.742    1773.0179    -24971.76   -1063.4929    201.00092    95.089838    14.514891    27.851598 
   23400    241.04708   -481.20506    204420.41   -23197.111    1749.5854   -24946.696   -1127.5481    202.99318    95.088492    14.517313    27.861598 
   23600    242.75019   -291.90564    204420.41   -23137.163     1761.947    -24899.11   -519.73293    204.08966     95.08732    14.517811    27.864755 
   23800    241.09043   -256.56933    204420.41    -23130.34       1749.9    -24880.24   -393.20928    206.00835    95.086484    14.518645    27.861859 
   24000    241.58332    -111.2825    204420.41   -23195.772    1753.4776    -24949.25    144.74652    208.25995    95.087585    14.518354    27.866988 
   24200    240.59772   -432.24947    204420.41   -23213.555    1746.3238   -24959.879    -957.7559    208.82315    95.088239    14.519246    27.857585 
   24400    236.48437   -183.45443    204420.41   -23233.876     1716.468   -24950.344   -114.96913     211.6581    95.090186    14.516041    27.860947 
   24600    244.11917   -184.61148    204420.41   -23269.361    1771.8834   -25041.245   -130.77022    214.14007    95.088537    14.515294    27.872877 
   24800    239.52076   -380.09991    204420.41    -23274.24     1738.507   -25012.747   -787.96903    215.46157    95.088169    14.515112    27.871389 
   25000     237.4271   -164.35746    204420.41   -23265.561    1723.3106   -24988.872   -86.437761     215.8794    95.086879    14.516448    27.870629 
   25200    231.05183   -328.03257    204420.41   -23356.618    1677.0371   -25033.655   -613.29906    218.85138    95.087716    14.516451    27.884803 
   25400    234.59464   -226.08081    204420.41   -23233.098    1702.7518    -24935.85   -312.87415    219.86363     95.08829    14.515718    27.891093 
   25600    248.66904   -190.55972    204420.41   -23104.292    1804.9076     -24909.2   -158.78545    221.67012    95.089761    14.516345    27.922048 
   25800    244.70558   -324.24779    204420.41   -23173.205    1776.1397   -24949.345   -565.89868    223.87972    95.089997    14.515632     27.92671 
   26000    236.06745   -463.09421    204420.41   -23246.402    1713.4419   -24959.844   -1134.1841    223.64835    95.089574    14.516797    27.929803 
   26200    240.20723   -201.95509    204420.41   -23274.365    1743.4895   -25017.854   -200.42129     224.5458    95.088935    14.516596     27.93686 
   26400    241.52702   -462.49279    204420.41     -23292.5    1753.0689   -25045.569   -1051.2743     224.6441    95.088303     14.51403    27.955141 
   26600     242.7191   -338.01609    204420.41   -23203.393    1761.7213   -24965.114   -648.89321    226.39563    95.087903    14.511676    27.949978 
   26800    240.01334   -425.77597    204420.41    -23221.27    1742.0822   -24963.352   -944.16476     225.0966    95.089498    14.510265    27.937049 
   27000    245.45005     -266.745    204420.41    -23162.65    1781.5433   -24944.193   -408.88682    226.91847    95.090398    14.506931    27.927316 
   27200    237.82742   -396.84297    204420.41   -23236.003    1726.2162    -24962.22   -843.77846    226.63432    95.093171    14.505672    27.905564 
   27400    246.10742   -570.21549    204420.41   -23135.107    1786.3147   -24921.421   -1460.4367    226.56653    95.094645    14.506968    27.911057 
   27600    238.81413   -263.52496    204420.41   -23282.772     1733.378    -25016.15   -392.19944     226.5693    95.094511    14.506953    27.909638 
   27800    244.29608   -337.65196    204420.41   -23177.847    1773.1675   -24951.015   -658.05769    227.26913    95.095456    14.508993    27.927477 
   28000    233.64952   -436.82603    204420.41   -23263.817    1695.8919   -24959.708   -985.39074     229.7015    95.095641    14.508768    27.909273 
   28200    239.93404   -213.95032    204420.41   -23220.862    1741.5066   -24962.369   -212.31724    229.45438    95.098434    14.510367    27.901685 
   28400    236.41982    -469.4882    204420.41    -23221.57    1715.9995   -24937.569   -1141.6992    230.75198    95.097778      14.5111    27.892894 
   28600    239.92372   -571.21266    204420.41    -23198.09    1741.4318   -24939.522   -1475.0329    232.26346    95.098863    14.512687    27.893752 
   28800    246.40807   -315.27296    204420.41   -23241.898    1788.4969   -25030.395   -579.61246    233.80848    95.099103    14.513252    27.885092 
   29000    243.72667   -309.82168    204420.41   -23223.921    1769.0346   -24992.956   -540.71727    235.92191    95.099258    14.512092    27.877902 
   29200    242.05081   -353.36052    204420.41    -23196.05    1756.8708   -24952.921   -715.39884    238.62629     95.09932    14.510863    27.861535 
   29400    243.25221   -241.44741    204420.41   -23248.967    1765.5908   -25014.558   -338.28388    241.04406    95.100031    14.507227    27.845401 
   29600    237.33163   -304.59109    204420.41   -23233.268    1722.6176   -24955.886   -519.92475    245.90659    95.100543    14.504458    27.846977 
   29800    234.48901   -533.63876    204420.41   -23308.466    1701.9851   -25010.451   -1338.3935    248.97985    95.099292     14.50329    27.856479 
   30000    232.56341   -279.62851    204420.41   -23346.443    1688.0086   -25034.452   -459.19668    251.22063    95.099051    14.504842    27.834972 
   30200    238.33986   -436.46086    204420.41   -23266.769    1729.9357   -24996.705   -1020.1214     255.1983    95.098636    14.506489    27.809977 
   30400    241.04184   -307.19411    204420.41   -23237.987    1749.5473   -24987.535   -578.20412    258.64677    95.097727    14.509515    27.807126 
   30600     237.5229   -286.05671    204420.41   -23348.806    1724.0059   -25072.812   -468.96981    262.17418    95.096817    14.508201    27.805651 
   30800    235.73215   -251.04293    204420.41   -23312.502    1711.0082    -25023.51   -339.87153    262.81947    95.098359    14.506683    27.827181 
   31000    244.39623   -226.04898    204420.41   -23243.748    1773.8944   -25017.642   -234.75119     263.5147    95.099113    14.507481    27.825361 
   31200    237.69108   -366.81881    204420.41    -23225.32    1725.2266   -24950.547   -765.16286    265.27767    95.098487    14.505157    27.841991 
   31400    240.91724   -313.07775    204420.41   -23242.094     1748.643   -24990.737   -557.84843     265.8754     95.09788    14.503155      27.8432 
   31600     232.5218   -453.56358    204420.41   -23292.409    1687.7066   -24980.115   -1108.1329    265.92608    95.095309    14.503983    27.854394 
   31800    238.05721   -292.98993    204420.41   -23152.322    1727.8841   -24880.206   -523.52371    268.45965    95.094204    14.503494    27.845964 
   32000    238.15198   -307.06973    204420.41   -23197.262     1728.572   -24925.833    -565.9571    270.75801    95.093965    14.504012    27.826711 
   32200    240.39957   -332.33553    204420.41   -23258.202    1744.8856   -25003.088   -650.44899    273.45869    95.093277      14.5017    27.840938 
   32400    244.69655   -335.85227    204420.41   -23274.111    1776.0742   -25050.186   -642.23114    276.32004    95.092944    14.500405    27.831364 
   32600    242.85859   -403.95956    204420.41   -23184.548    1762.7338   -24947.282   -888.37439    277.70653    95.091891    14.498745     27.83054 
   32800      243.384   -474.61224    204420.41   -23175.054    1766.5474   -24941.601   -1137.7321    281.02222    95.093026    14.497391    27.847204 
   33000    243.94853   -319.62318    204420.41   -23220.904    1770.6449   -24991.549   -579.65575    280.24522    95.096153    14.497182    27.849847 
   33200    239.17072   -259.75854    204420.41   -23222.048    1735.9662   -24958.014   -397.30073    283.17668    95.094567    14.499138    27.849834 
   33400    234.76263   -361.52391    204420.41   -23237.569    1703.9711    -24941.54   -722.63396     286.5184    95.094619    14.499219    27.840219 
   33600    241.74336   -354.45541    204420.41   -23256.212    1754.6392   -25010.851   -703.71187    288.96466    95.094652    14.500155    27.834562 
   33800    248.03475   -485.03333    204420.41   -23061.853    1800.3038   -24862.157   -1141.7077    290.68782     95.09395    14.499465    27.831296 
   34000    243.86312   -247.04007    204420.41   -23235.585     1770.025    -25005.61   -363.66079    290.82287    95.093229    14.495854    27.833214 
   34200    238.36205   -366.17105    204420.41   -23259.092    1730.0967   -24989.189   -740.60713    292.00935    95.092136    14.494121    27.832156 
   34400    241.28863   -277.51017    204420.41   -23310.513    1751.3386   -25061.851   -478.68783    296.42151    95.092596    14.491521    27.840185 
   34600    242.11879   -263.54352    204420.41   -23145.318    1757.3641   -24902.682    -443.2172    298.90941     95.09105    14.488776    27.839291 
   34800     237.1256   -398.22524    204420.41   -23224.978    1721.1222     -24946.1   -824.74745    302.33577    95.090258    14.490834    27.816689 
   35000    235.22757   -401.26628    204420.41   -23254.838    1707.3458   -24962.184    -893.1324    304.38461    95.089801    14.494116    27.823396 
   35200    239.56403   -294.15335    204420.41   -23134.129     1738.821    -24872.95   -537.75674    304.65011    95.090782    14.496324     27.81308 
   35400    244.27165   -225.71083    204420.41   -23129.196    1772.9902   -24902.186   -276.37578    306.36626    95.092067    14.495601    27.806967 
   35600    240.29766   -448.93804    204420.41   -23143.171    1744.1459   -24887.317   -1064.7926    307.59219    95.092557    14.495654    27.833009 
   35800    253.38767   -409.74394    204420.41   -23094.179    1839.1568   -24933.336   -905.67592    307.26297    95.092306    14.496342    27.848875 
   36000    233.44742   -376.84807    204420.41   -23219.494     1694.425   -24913.919   -830.43192     309.6471    95.090048    14.495161    27.858401 
   36200    238.76124   -269.61331    204420.41   -23242.798    1732.9941   -24975.793   -431.74385    311.43882     95.08922    14.493845     27.87945 
   36400    235.62964   -539.44192    204420.41   -23213.652    1710.2641   -24923.917   -1342.5276    316.70796    95.089847     14.49507    27.876496 
   36600    243.32069   -293.99822    204420.41   -23223.794    1766.0879   -24989.881   -478.92469    321.67551    95.090661    14.495551    27.853969 
   36800    233.74766   -236.28473    204420.41    -23265.67    1696.6042   -24962.274   -286.42641    324.17033    95.091957    14.495546    27.871742 
   37000    241.62703   -603.89546    204420.41   -23209.924    1753.7948   -24963.719   -1568.6656    328.97867    95.091108    14.492747    27.865256 
   37200    235.34561   -171.85796    204420.41   -23197.694    1708.2025   -24905.896   -126.14376    331.41573    95.092365    14.490475    27.858147 
   37400    235.91093   -369.14463    204420.41   -23221.731    1712.3058   -24934.036   -770.94685    334.83004    95.090591    14.490994    27.860696 
   37600    237.57208   -393.32801    204420.41   -23252.311    1724.3629   -24976.674   -845.12821    337.62413    95.089539    14.490304     27.86529 
   37800    234.37151   -317.02787    204420.41   -23267.717    1701.1323    -24968.85    -585.4246    342.42308    95.089365    14.492138    27.877713 
   38000    240.01602   -418.68117    204420.41    -23137.99    1742.1016   -24880.091   -966.04903    345.10478    95.088104    14.490239    27.875699 
   38200    239.75852   -435.47517    204420.41   -23140.992    1740.2327   -24881.225    -1013.805    350.60339    95.087123    14.488802    27.871128 
   38400    248.26109   -273.32742    204420.41    -23116.17    1801.9466   -24918.117    -404.4319    353.25331    95.086077    14.490163    27.877298 
   38600     243.3266   -180.25383    204420.41   -23162.603    1766.1307   -24928.734    -72.84875    356.74566    95.085959    14.489083    27.877906 
   38800    241.86119   -446.29664    204420.41   -23159.557    1755.4944   -24915.052   -1022.5027    362.50375    95.085422    14.487614    27.865162 
   39000    241.18158   -208.76962    204420.41   -23127.585    1750.5616   -24878.146   -231.08941    364.08964    95.086048    14.487239     27.84322 
   39200    232.53411   -370.29201    204420.41   -23207.319    1687.7959   -24895.115   -782.36893    365.13234    95.085541    14.489097    27.844515 
   39400    241.38833    -293.3443    204420.41   -23185.446    1752.0623   -24937.509   -504.74396    364.46388    95.085591     14.49085    27.819731 
   39600     242.5079    -321.1089    204420.41   -23104.491    1760.1885   -24864.679   -583.41463    363.99229     95.08721    14.491416    27.826071 
   39800     243.5611   -206.17236    204420.41   -23199.434    1767.8329   -24967.267   -201.77673    362.64708    95.087178    14.489988    27.810129 
   40000    241.24525   -368.21863    204420.41    -23155.05    1751.0237   -24906.074   -736.76732     361.7462    95.088331    14.489694    27.798193 
   40200    240.48234   -292.84998    204420.41   -23157.765    1745.4864   -24903.252   -496.79438    364.02508    95.087511    14.491862    27.787784 
   40400    239.02167   -377.64101    204420.41   -23248.972    1734.8844   -24983.856    -803.1527    366.15403    95.088616    14.492887    27.794307 
   40600    240.72752   -235.80689    204420.41   -23176.104    1747.2659    -24923.37   -321.76626    368.51288    95.089612    14.491351    27.782918 
   40800    239.56119   -245.28058    204420.41   -23253.546    1738.8004   -24992.346   -330.71564    372.11892    95.089793    14.491178     27.78462 
   41000    240.00735   -220.55823    204420.41   -23254.292    1742.0387   -24996.331   -209.77628    376.67009    95.089414    14.491892    27.794795 
   41200    240.63911   -420.43847    204420.41    -23121.47    1746.6242   -24868.094   -957.45549     384.2904    95.088267    14.492567    27.803311 
   41400    242.98436   -331.42903    204420.41   -23191.146    1763.6467   -24954.793   -607.88766    389.64475    95.087291    14.492033    27.801576 
   41600    242.44349   -526.90946    204420.41   -23166.384    1759.7209   -24926.105   -1327.1767    396.56091    95.087734    14.495149    27.789955 
   41800    244.08407   -402.28429    204420.41   -23200.492    1771.6287   -24972.121   -882.48484    401.24309    95.087067    14.495423    27.781036 
   42000      239.106   -218.83424    204420.41   -23219.859    1735.4965   -24955.356   -228.69249    402.38088    95.086455    14.498114    27.789467 
   42200    236.02278    -357.5182    204420.41   -23249.595    1713.1176   -24962.712   -701.27002    403.10574    95.087746    14.498761     27.79261 
   42400    239.63238   -457.47192    204420.41   -23197.286    1739.3171   -24936.603   -1092.7146     404.2019    95.087945    14.501203    27.798214 
   42600    247.76934    -583.7509    204420.41   -23184.088    1798.3774   -24982.466   -1487.1344    408.36878    95.088223    14.502975     27.77756 
   42800    236.32779   -213.22183    204420.41    -23166.81    1715.3315   -24882.141   -229.45241    412.61596    95.086548    14.501388     27.77064 
   43000    236.85009   -358.41921    204420.41   -23197.699    1719.1225   -24916.821   -737.55432    415.14107     95.08679    14.500306    27.757766 
   43200     234.9636   -560.39642    204420.41   -23191.894    1705.4298   -24897.324   -1426.3603    419.26855    95.086345      14.4962    27.767736 
   43400    240.89027   -201.97879    204420.41   -23234.658    1748.4472   -24983.105   -142.02607    423.72475    95.085968    14.495245    27.771169 
   43600    235.93948   -271.27779    204420.41   -23267.028     1712.513   -24979.541   -406.09429    426.26796    95.085232    14.495102    27.764155 
   43800    237.55907   -311.36938    204420.41    -23273.77    1724.2685   -24998.039   -552.98138    425.17463    95.083625    14.495638    27.765826 
   44000    236.37857   -340.01895    204420.41   -23315.424       1715.7   -25031.124   -667.41243    422.65889    95.082447    14.499947    27.782165 
   44200    236.76709   -268.65173    204420.41   -23234.714      1718.52   -24953.234    -387.4936      421.714    95.079359    14.500877    27.797289 
   44400    234.46214   -436.02313    204420.41   -23229.002    1701.7901   -24930.792   -991.03446    421.37087    95.079176    14.499672    27.774602 
   44600    234.55489   -506.12208    204420.41   -23271.928    1702.4633   -24974.391   -1208.3713     422.4117    95.080838     14.49892     27.75851 
   44800    235.37122    -320.5623    204420.41   -23248.946    1708.3884   -24957.334    -609.0955    424.74947    95.081145    14.500094    27.764082 
   45000    241.83399   -364.56501    204420.41   -23201.449     1755.297   -24956.746   -721.74146    427.44346    95.082479    14.501027    27.772329 
   45200    243.16633    -81.23505    204420.41   -23207.271    1764.9675   -24972.238    252.97959    425.36842    95.082998    14.502563    27.771097 
   45400     238.2612    -529.7294    204420.41   -23247.342    1729.3647   -24976.707    -1328.028    427.53732     95.08378    14.503381    27.776378 
   45600    243.74754   -231.19183    204420.41   -23175.525     1769.186   -24944.711   -243.87589    432.35511    95.082191    14.504288    27.786867 
   45800    240.54183   -562.91199    204420.41   -23205.446    1745.9181   -24951.364   -1429.4961    438.56532    95.079999    14.506336    27.776139 
   46000     247.2409   -320.75715    204420.41    -23143.75    1794.5418   -24938.292   -604.70196    442.95383    95.079152    14.509845    27.765768 
   46200    248.28344   -415.44092    204420.41   -23107.946    1802.1089   -24910.054    -929.8283     449.5818    95.080727    14.510505    27.763424 
   46400    235.87372   -130.10626    204420.41   -23220.717    1712.0357   -24932.753    136.80859    453.26863      95.0815    14.513191    27.775167 
   46600    239.00053   -361.84846    204420.41   -23237.275     1734.731   -24972.006   -746.72224    456.87293    95.080015    14.512347    27.779145 
   46800    244.38876   -320.05679    204420.41   -23190.194    1773.8402   -24964.035   -579.90861    462.40532    95.079932    14.513139    27.800694 
   47000    239.17762   -457.92787    204420.41   -23164.436    1736.0164   -24900.453   -1070.9705    468.98924    95.078392     14.51276    27.800338 
   47200    236.89392   -468.65622    204420.41   -23258.093    1719.4406   -24977.534   -1086.3762    472.93614    95.077661    14.516849    27.783043 
   47400    242.90312   -342.29802    204420.41   -23186.126    1763.0571   -24949.183   -670.73839    476.66006    95.079041    14.518518    27.775424 
   47600     241.8073   -386.97578    204420.41   -23203.797    1755.1033     -24958.9   -816.08073    482.59465    95.081048    14.516085    27.793853 
   47800    239.95625   -433.10388    204420.41   -23240.499    1741.6679   -24982.166   -993.20784    487.65135    95.079177    14.517391    27.803576 
   48000    234.44306   -349.15624    204420.41   -23287.051    1701.6516   -24988.703   -686.89279    490.84445    95.078345    14.520075    27.786303 
   48200    238.59796    -475.3453    204420.41   -23280.901     1731.809    -25012.71   -1154.0238    492.89393    95.080141    14.522321    27.800779 
   48400    238.34895    -220.8597    204420.41   -23271.005    1730.0016   -25001.007   -272.82462     493.9181    95.080384    14.523435    27.803473 
   48600    233.60672   -354.33422    204420.41   -23355.938    1695.5812   -25051.519    -726.8435    499.60009    95.079737    14.524732    27.809665 
   48800    238.51917   -358.54755    204420.41    -23276.84    1731.2371   -25008.077   -713.17787    502.42535    95.078806    14.526849    27.808751 
   49000     230.8776   -493.38919    204420.41   -23230.824    1675.7725   -24906.597   -1191.8167    504.44613    95.079428     14.52586    27.807242 
   49200    242.82988   -377.00085    204420.41   -23150.291    1762.5254   -24912.817    -817.0641    505.50965    95.079607    14.525701    27.805622 
   49400     234.4487   -585.77657    204420.41   -23216.877    1701.6925    -24918.57   -1501.6624    507.18873    95.078407    14.529496    27.794828 
   49600    235.80685   -413.64991    204420.41   -23221.721    1711.5503   -24933.271   -917.42355    507.82796    95.078119    14.532211    27.791309 
   49800     239.0395   -426.53437    204420.41   -23238.345    1735.0138   -24973.359    -915.6954    510.32912    95.078663     14.53365    27.800725 
   50000    242.78733   -240.03689    204420.41   -23283.945    1762.2166   -25046.162   -290.86396    512.28202    95.079334    14.535704    27.816683 
   50200    244.97734   -380.60944    204420.41   -23181.568    1778.1123    -24959.68   -824.12378    518.05918    95.080885    14.537983    27.837813 
   50400    242.19002   -292.41692    204420.41   -23224.264    1757.8811   -24982.146    -468.6808      523.054    95.080698    14.539578    27.832327 
   50600    247.73864   -270.61825    204420.41   -23129.081    1798.1545   -24927.236   -406.36176    526.89258    95.082835    14.537456    27.852716 
   50800    226.19514    -550.8099    204420.41   -23310.205    1641.7859   -24951.991   -1419.6271    527.54422    95.082649    14.539078    27.852749 
   51000    239.53467   -272.22991    204420.41   -23279.901    1738.6079   -25018.509     -442.152    525.80084    95.083065    14.539082     27.85142 
   51200    240.12986   -394.86608    204420.41   -23274.758     1742.928   -25017.686   -862.32637    521.77578     95.08193    14.541364    27.848342 
   51400    240.03683    -408.9275    204420.41   -23263.891    1742.2527   -25006.144   -902.34609    520.66866     95.08058     14.54047     27.85939 
   51600    237.22861   -336.49825    204420.41    -23295.73    1721.8699   -25017.599   -668.30918    527.77663    95.078809    14.539736    27.851681 
   51800    236.88355   -163.91933    204420.41   -23271.641    1719.3653   -24991.006   -58.098702    531.70843    95.078685    14.538776    27.839445 
   52000    235.93256   -447.21648    204420.41   -23324.869    1712.4628   -25037.332   -1062.5687    530.20236    95.080991    14.539739    27.844802 
   52200     232.5389   -344.09041    204420.41   -23321.211    1687.8307   -25009.041   -669.83214    530.04952    95.080391    14.541189    27.845331 
   52400    236.41077   -365.10625    204420.41   -23395.803    1715.9338   -25111.737   -711.94542    532.65137     95.08109    14.543907     27.84146 
   52600    242.45794   -245.16433    204420.41    -23262.26    1759.8258   -25022.086     -349.904    530.41504     95.08021    14.539638    27.869747 
   52800    243.40903   -584.13966    204420.41   -23170.365    1766.7291   -24937.094   -1499.0192    529.32513    95.081615     14.53853    27.878423 
   53000    248.69922   -386.12566    204420.41   -23166.149    1805.1267   -24971.275   -843.01217    524.99942    95.080387    14.537886    27.853876 
   53200    238.18838   -281.00402    204420.41   -23253.348    1728.8362   -24982.184   -454.16868    519.77119    95.079133    14.536988    27.840623 
   53400    237.50219   -326.71611    204420.41   -23239.626    1723.8556   -24963.481   -651.98126    518.28097    95.077947    14.538097    27.835088 
   53600    235.03195   -396.23357    204420.41   -23298.184    1705.9259    -25004.11   -882.63439    521.93825    95.077705    14.537046    27.848222 
   53800    241.31863   -322.58095    204420.41   -23299.802    1751.5564   -25051.358   -609.17627    525.19367    95.077856    14.534984    27.858516 
   54000    244.02021   -167.97338    204420.41    -23261.56    1771.1652   -25032.725   0.35789971    528.83541    95.078129    14.535533    27.871251 
   54200    241.51167   -389.31323    204420.41   -23188.402    1752.9575   -24941.359    -813.2089    533.24287    95.078236    14.539018    27.852744 
   54400    244.67418    -448.1684    204420.41    -23146.81    1775.9118   -24922.722   -1041.9847    539.78836     95.07854    14.536718    27.857501 
   54600    244.73526   -171.37509    204420.41   -23175.299    1776.3552   -24951.655   -44.981608    539.93263    95.078909    14.532084    27.844104 
   54800    241.43497    -378.8258    204420.41   -23147.205    1752.4008   -24899.606    -776.1851    538.60752    95.078277    14.532218    27.827971 
   55000    242.97197   -520.31592    204420.41   -23154.547    1763.5567   -24918.103   -1232.2841    535.27949    95.078174    14.533296    27.819902 
   55200    230.15575   -229.41948    204420.41    -23292.73    1670.5332   -24963.263   -280.93516    530.66629    95.078118    14.532549    27.805015 
   55400     242.0425   -90.314275    204420.41   -23263.459    1756.8104   -25020.269    226.24787    532.52667    95.079122    14.535207    27.815593 
   55600    243.18026   -317.85188    204420.41   -23226.788    1765.0686   -24991.857   -580.45314    538.77453     95.08037    14.536881    27.825925 
   55800     246.4521   -481.78695    204420.41   -23129.487    1788.8165   -24918.304    -1145.451    542.72955    95.080516    14.538971    27.838783 
   56000    244.39751   -332.58458    204420.41    -23179.29    1773.9037   -24953.194   -619.42458    547.96234        95.08    14.538908    27.832701 
   56200    241.59044   -498.30656    204420.41   -23173.074    1753.5292   -24926.603   -1194.7922    555.84853     95.07968    14.538688     27.80904 
   56400    237.75144   -221.15732    204420.41   -23290.872    1725.6647   -25016.536   -226.25535    555.17528    95.079549    14.540302    27.815392 
   56600    228.77076   -342.91106    204420.41   -23375.058    1660.4805   -25035.538   -657.67317    550.41179    95.078506    14.543512    27.827855 
   56800    241.50048   -187.79184    204420.41   -23251.984    1752.8763    -25004.86   -145.96622    545.12241    95.080243    14.542296    27.822887 
   57000    232.48851   -396.23313    204420.41   -23302.254     1687.465   -24989.719   -825.50157    543.56099    95.078657    14.541065    27.820527 
   57200     239.7976   -421.53286    204420.41   -23171.812    1740.5163   -24912.328   -940.86958    542.64929    95.078657    14.540736    27.803545 
   57400    242.32636   -203.23351    204420.41    -23232.38    1758.8708   -24991.251   -188.19203    541.68034     95.07981    14.541844    27.781542 
   57600    236.77304     -338.742    204420.41   -23278.834    1718.5632   -24997.397   -683.59007    540.25171    95.079314    14.544295    27.791642 
   57800    240.64286   -333.02172    204420.41   -23236.042    1746.6515   -24982.693   -643.67335    538.01958    95.078367    14.542511    27.789735 
   58000    242.75224   -200.51001    204420.41   -23257.389    1761.9619   -25019.351   -163.70069     535.0318    95.079163    14.543761      27.8009 
   58200    241.88034   -405.96714    204420.41   -23212.574    1755.6334   -24968.208    -905.7396    540.21354    95.079129     14.54353    27.814999 
   58400    243.20372   -236.99929    204420.41   -23221.131    1765.2389   -24986.369   -322.12117    546.65817    95.080718    14.540342    27.831486 
   58600    235.55885   -271.38594    204420.41   -23236.023    1709.7503   -24945.774   -389.30822    554.20495     95.07987    14.540211    27.841756 
   58800    235.76072   -275.71022    204420.41   -23217.219    1711.2155   -24928.435   -433.86813    555.55721    95.078231    14.542888    27.851852 
   59000    246.65054   -282.88729    204420.41   -23138.693    1790.2569    -24928.95   -471.64597    553.30295    95.077441    14.541729    27.838421 
   59200    241.84553   -477.12237    204420.41   -23210.898    1755.3808   -24966.279   -1105.0841     550.5261    95.076962    14.544764    27.844421 
   59400    235.10628   -318.41375    204420.41   -23232.416    1706.4654   -24938.881   -572.42884    553.69644    95.074667    14.545823    27.837172 
   59600    239.56185   -310.64289    204420.41   -23298.838    1738.8052   -25037.643   -606.21431    556.76011    95.072738     14.54327    27.829229 
   59800    242.88293   -325.32013    204420.41   -23265.865    1762.9105   -25028.776   -622.71127    558.73264    95.071987    14.544081    27.823893 
   60000     235.4171   -340.43898    204420.41   -23243.797    1708.7214   -24952.518   -689.80093    563.96506    95.074234    14.543916    27.817146 
   60200    239.66973   -136.65436    204420.41   -23272.795    1739.5882   -25012.384    29.239437    567.60556    95.075852    14.542415    27.813644 
   60400    232.85768   -501.12483    204420.41   -23214.502    1690.1445   -24904.646   -1196.2091    574.04611    95.073776     14.54124    27.795831 
   60600    241.09195   -302.80789    204420.41   -23245.489    1749.9111     -24995.4    -555.5206    583.22107    95.073457    14.539988     27.79495 
   60800    242.00806   -426.41995    204420.41   -23156.814    1756.5605   -24913.374   -951.98548      586.263    95.073341    14.540417    27.777964 
   61000    238.40531   -326.70952    204420.41   -23234.726    1730.4107   -24965.137   -645.82029    587.14737    95.071638    14.540541    27.775752 
   61200    241.68598   -308.28724    204420.41   -23186.396    1754.2227   -24940.619   -514.19722    586.16418    95.069935    14.540073    27.777519 
   61400    243.00968   -348.88065    204420.41   -23181.228    1763.8304   -24945.058   -699.95029    585.27997    95.070459    14.537474    27.790919 
   61600    242.95978   -361.01547    204420.41   -23197.479    1763.4683   -24960.947   -727.69545    586.11468    95.069415    14.534539    27.796491 
   61800    237.83924   -240.83893    204420.41   -23269.038     1726.302    -24995.34   -259.88572    588.95679    95.069976    14.533241    27.811561 
   62000    237.90626    -327.6604    204420.41   -23217.852    1726.7884    -24944.64   -618.49859    595.50922    95.070875    14.534544    27.806188 
   62200    243.14473   -215.15746    204420.41   -23242.623    1764.8107   -25007.434   -235.72863    600.06755    95.072505    14.534746    27.807652 
   62400    234.29254   -169.70382    204420.41   -23233.736    1700.5591   -24934.295   -85.310201     602.7105    95.072313    14.535234    27.821157 
   62600    241.89605   -440.82223    204420.41   -23260.468    1755.7475   -25016.215   -984.95198    603.88522    95.071187    14.534061    27.809407 
   62800    239.83551   -414.39487    204420.41   -23353.193    1740.7915   -25093.985   -887.15059    600.10167    95.070118    14.532742    27.799729 
   63000    238.49306   -348.41264    204420.41   -23252.198    1731.0476   -24983.245   -680.74472    596.29712    95.069051    14.531986    27.811066 
   63200    238.68697   -478.76298    204420.41   -23287.042    1732.4551   -25019.497   -1094.3274     595.7515    95.068693    14.529277    27.797027 
   63400    229.01076   -458.10306    204420.41   -23339.818    1662.2225   -25002.041   -1108.6875    594.94254    95.069148    14.529047    27.801606 
   63600    241.97194   -474.03118    204420.41   -23353.411    1756.2983    -25109.71   -1092.7021    594.56418    95.069382    14.528514    27.783762 
   63800    232.13046   -148.51569    204420.41   -23382.259    1684.8661   -25067.125   -31.249223    593.19802    95.069698    14.529631    27.802135 
   64000    241.70702   -373.56695    204420.41    -23262.64    1754.3754   -25017.015   -808.02651    594.80026    95.070592    14.528828    27.808679 
   64200    240.05181   -565.55731    204420.41   -23283.242    1742.3615   -25025.603   -1440.6994    601.16344    95.069171    14.530324    27.810027 
   64400    237.68285   -178.53588    204420.41   -23334.362    1725.1669   -25059.529   -96.047023    602.49723    95.068132    14.529991    27.810639 
   64600    231.18222   -498.44896    204420.41   -23304.357    1677.9836   -24982.341   -1172.7279    601.03495    95.068517    14.528955    27.802543 
   64800    240.18803   -234.28486    204420.41   -23287.809    1743.3502   -25031.159   -297.03248    598.18328    95.068174    14.526866    27.814631 
   65000    243.66261   -242.12396    204420.41   -23182.521    1768.5696    -24951.09   -322.90548    596.09006    95.069259    14.525227    27.807036 
   65200    238.23901   -317.21619    204420.41   -23237.485    1729.2036   -24966.689   -582.99769    595.37293    95.068146    14.523471    27.800512 
   65400    237.57911   -441.40429    204420.41   -23233.302    1724.4139   -24957.716   -976.02599    595.64725    95.067804    14.521514    27.817468 
   65600    246.39803    -476.8353    204420.41   -23158.192     1788.424   -24946.616   -1147.9662    596.05461     95.06899    14.521993    27.814862 
   65800    236.79686   -558.22624    204420.41   -23196.046    1718.7361   -24914.782   -1432.1064    597.90585    95.068014    14.522903    27.818924 
   66000    239.95401   -470.99672    204420.41   -23181.264    1741.6516   -24922.916   -1099.7473    603.21364    95.070824    14.524708     27.81449 
   66200    243.15722   -316.56783    204420.41   -23241.405    1764.9014   -25006.306   -543.83504    606.74007    95.070188    14.524276     27.80326 
   66400     238.8491   -277.43267    204420.41   -23240.552    1733.6318   -24974.184   -459.27038    613.55375    95.070515    14.526052    27.829224 
   66600    241.77241   -211.37463    204420.41   -23268.948      1754.85   -25023.798   -206.03493    614.61524    95.069319    14.527734    27.830862 
   66800    237.62408    -305.5372    204420.41   -23282.034    1724.7403   -25006.774    -537.1435    617.20679    95.069905    14.528738    27.827628 
   67000    232.58796   -513.27036    204420.41   -23334.883    1688.1868    -25023.07   -1258.4113    621.44859    95.069218    14.531796    27.833638 
   67200    237.92055   -241.83536    204420.41   -23254.582    1726.8921   -24981.474   -323.17423     625.1907     95.06852    14.535027     27.82146 
   67400     235.0418   -438.56684    204420.41   -23228.651    1705.9974   -24934.648   -968.18438     624.0093    95.068912    14.532901      27.8107 
   67600    248.26584   -319.68705    204420.41   -23171.909    1801.9811    -24973.89   -569.35886    620.36603    95.070959    14.531977    27.837187 
   67800    239.10652   -442.64255    204420.41   -23198.516    1735.5003   -24934.016   -1039.1427    619.64419     95.06874    14.534358    27.816557 
   68000    233.02741   -105.31438    204420.41   -23288.186    1691.3765   -24979.562    191.61102    621.71866     95.06688    14.532262    27.823523 
   68200    238.17423   -294.34685    204420.41   -23243.345    1728.7335   -24972.078    -464.4055    622.81896     95.06548    14.530217    27.805772 
   68400    244.76199   -418.18932    204420.41   -23199.868    1776.5492   -24976.417    -959.7151    626.64869     95.06267    14.534247    27.822178 
   68600    236.13789   -431.19612    204420.41   -23251.119    1713.9532   -24965.072    -986.1533    626.35475    95.064362    14.533982    27.809302 
   68800    244.27395   -261.70984    204420.41   -23211.411    1773.0069   -24984.418   -380.60178    627.33501    95.065487    14.532584    27.802431 
   69000    239.48125   -313.58751    204420.41   -23206.497    1738.2202   -24944.717   -567.53509    632.62958    95.066264    14.531247    27.784566 
   69200    237.22327   -269.94431    204420.41   -23287.593    1721.8311   -25009.424   -415.81265    641.02139    95.066088    14.529057     27.77733 
   69400    236.40646   -252.77158    204420.41   -23288.419    1715.9025   -25004.321   -322.30153    648.08134    95.065872    14.527206    27.803415 
   69600    241.42921   -296.58736    204420.41     -23157.7     1752.359   -24910.059   -519.76827    649.26122    95.065285    14.525913    27.823002 
   69800    243.64129   -319.24656    204420.41   -23202.886    1768.4149   -24971.301   -573.49603     651.4932    95.067491    14.523767    27.837333 
   70000    237.39653   -279.84273    204420.41   -23240.074    1723.0887   -24963.163   -396.58121    651.48963     95.06887      14.5233    27.856974 
   70200    247.54752   -176.97155    204420.41   -23139.985    1796.7674   -24936.752   -96.022802    652.66929    95.069584    14.524607    27.869231 
   70400    243.03495   -450.06211    204420.41   -23161.409    1764.0139   -24925.423   -1024.5349    656.12467    95.067836    14.522925    27.896572 
   70600    237.62822   -296.51385    204420.41   -23208.563    1724.7703   -24933.334   -494.82532    660.76057    95.066656     14.52106     27.90026 
   70800    238.86188   -309.43304    204420.41   -23224.349    1733.7246   -24958.073   -530.33292    665.62978    95.065865    14.516501    27.887107 
   71000    234.10165   -327.61581    204420.41   -23229.664    1699.1736   -24928.837   -637.72445    667.74966    95.065119    14.517548    27.891095 
   71200    240.44733   -409.13368    204420.41   -23266.876    1745.2322   -25012.108   -922.26353    670.48862    95.068605    14.517077    27.884044 
   71400    236.34132   -157.66866    204420.41   -23276.619    1715.4297   -24992.049   -13.505669    676.88841    95.070969    14.517956    27.904055 
   71600    243.62331   -338.45299    204420.41   -23167.995    1768.2844   -24936.279   -645.29674    687.37433    95.072447    14.518707    27.911474 
   71800    235.20345   -457.38039    204420.41   -23246.995    1707.1707   -24954.165   -1043.8483    703.42606    95.072935    14.522988    27.915782 
   72000    237.41999   -213.47583    204420.41   -23238.389    1723.2589   -24961.648   -250.45625    715.83246    95.072663    14.520776    27.890388 
   72200    243.88076   -471.90284    204420.41   -23093.361     1770.153   -24863.514   -1074.9224    721.95056    95.073574    14.522455     27.89994 
   72400    247.07117   -269.83668    204420.41   -23194.772    1793.3099   -24988.082   -406.71019    727.03476    95.073619    14.521335    27.895396 
   72600    240.14197   -334.39554    204420.41   -23206.668    1743.0159   -24949.684   -655.11183    730.26817    95.073755    14.521015    27.886443 
   72800    243.95257    -357.3033    204420.41   -23236.806    1770.6742    -25007.48   -749.78903    733.05621    95.071044    14.520838    27.889456 
   73000    236.46073   -442.05836    204420.41   -23256.807    1716.2964   -24973.104   -959.69436    737.92924    95.071671    14.518124    27.891423 
   73200    245.15418   -248.11773    204420.41   -23228.249    1779.3958   -25007.645    -336.6685    740.93711    95.072145    14.516749      27.8908 
   73400    243.01227   -392.08945    204420.41   -23170.652    1763.8492   -24934.501   -852.45221    742.86031     95.07287    14.516133    27.890259 
   73600    243.36591   -248.57748    204420.41   -23213.842    1766.4161   -24980.258   -356.57464    749.28545    95.073663     14.51977    27.906548 
   73800    233.99999   -437.84873    204420.41   -23299.925    1698.4357    -24998.36    -1011.494    752.93929    95.073639    14.521292    27.888532 
   74000    240.84169   -470.92847    204420.41   -23293.634    1748.0946   -25041.728    -1099.402    751.74092    95.073694    14.519661    27.879747 
   74200    240.68599   -318.70033    204420.41   -23165.058    1746.9645   -24912.023   -567.35738     753.8352    95.072362    14.519635    27.869564 
   74400    234.95342   -470.82914    204420.41   -23166.748    1705.3559   -24872.104   -1139.3505    753.79171    95.071975    14.519268    27.873224 
   74600    240.52848   -110.04645    204420.41   -23228.624    1745.8212   -24974.445    127.27726    753.96608    95.071231    14.519175    27.875248 
   74800    242.18604   -469.54652    204420.41   -23230.432    1757.8523   -24988.285   -1145.0588    753.55852    95.071226    14.520789    27.869935 
   75000    239.48486   -260.26127    204420.41   -23230.344    1738.2464   -24968.591   -397.27874    749.86156    95.070831    14.523223    27.890459 
   75200    244.44968   -404.21907    204420.41   -23156.192    1774.2824   -24930.475   -888.03596    742.08754    95.071357    14.521804    27.889337 
   75400    230.83586   -346.66986    204420.41   -23228.696    1675.4695   -24904.165   -724.90305    735.68185    95.072857    14.523902    27.889365 
   75600    240.18309   -496.73041    204420.41   -23193.851    1743.3143   -24937.165   -1217.0703    736.44623    95.071443    14.524283    27.910666 
   75800    243.32557   -246.08423    204420.41   -23131.174    1766.1233   -24897.298   -296.74236    739.23692    95.071415    14.522191    27.917119 
   76000    243.40179   -376.96374    204420.41   -23112.368    1766.6765   -24879.044   -789.40133    746.81404    95.069095    14.521139    27.918478 
   76200    235.65325   -576.11181    204420.41   -23254.871    1710.4355   -24965.307   -1503.1535    752.16807     95.06896    14.518638    27.918801 
   76400    239.57735   -226.15881    204420.41   -23221.135    1738.9177   -24960.053   -233.63262    759.04212    95.070497    14.519708    27.901802 
   76600    243.51735   -374.57046    204420.41    -23194.72    1767.5153   -24962.235   -770.09997    758.34329     95.07039    14.518967    27.890985 
   76800    241.37354   -450.26692    204420.41   -23216.794    1751.9549   -24968.749   -1072.9455    756.06655    95.069304    14.522454    27.886919 
   77000    238.98271   -294.38233    204420.41   -23239.006    1734.6016   -24973.608   -522.23933    755.40028    95.068428    14.520626    27.885064 
   77200    241.33009   -183.96851    204420.41   -23162.852    1751.6395   -24914.492   -109.79379    760.32266    95.068827    14.520983    27.869182 
   77400    244.44004   -287.50472    204420.41   -23201.779    1774.2124   -24975.992   -461.78951    760.23819    95.070637    14.522483    27.847398 
   77600    235.85292    -413.5745    204420.41   -23245.067    1711.8847   -24956.952   -921.51588    757.74009    95.071338    14.521031    27.850215 
   77800    243.18823   -361.00921    204420.41   -23274.042    1765.1265   -25039.169   -668.79643    753.13256    95.073292    14.519681    27.850016 
   78000    239.79231     -209.194    204420.41    -23265.91    1740.4779   -25006.388   -224.85744    753.36133    95.074702    14.519649    27.862309 
   78200    239.95016   -257.48413    204420.41   -23266.768    1741.6237   -25008.392   -370.40761    758.37726    95.073371    14.521992    27.842182 
   78400     242.7227   -215.87267    204420.41   -23201.873    1761.7475    -24963.62   -230.98728    765.88001    95.072029    14.521816    27.852181 
   78600    240.74924   -424.03611    204420.41    -23228.26    1747.4236   -24975.684   -986.08114    764.45679    95.070792    14.523472    27.872719 
   78800    241.86878    -207.1601    204420.41   -23172.084    1755.5495   -24927.634   -253.82936    761.18473    95.068696    14.525749    27.864786 
   79000    242.53476   -427.40273    204420.41   -23196.841    1760.3834   -24957.225   -993.19091    760.20556    95.068777      14.5269    27.885321 
   79200    243.49081   -557.11439    204420.41   -23191.757    1767.3226    -24959.08   -1446.5612    756.65324    95.066801     14.53059    27.896636 
   79400     240.9968   -350.10685    204420.41    -23199.64    1749.2204    -24948.86   -713.87541    754.79309    95.067215    14.532991    27.893155 
   79600    238.85747   -461.96322    204420.41   -23285.289    1733.6926   -25018.982   -1091.2857     753.7142    95.067816    14.531154    27.904785 
   79800    238.49213   -419.72622    204420.41   -23263.366    1731.0409   -24994.407   -960.17111     752.0251    95.069624    14.530548     27.90437 
   80000    237.88685   -354.04743    204420.41   -23319.292    1726.6476    -25045.94    -734.4487    758.43664    95.069823    14.531521    27.903134 
   80200    234.76499   -382.18984    204420.41   -23340.872    1703.9883    -25044.86   -821.57441    764.11258    95.068887    14.531954    27.893589 
   80400    234.58274   -175.00701    204420.41   -23334.166    1702.6655   -25036.832   -78.504131    765.71154    95.068503     14.53194    27.893126 
   80600    232.71662   -300.79974    204420.41    -23302.27    1689.1206    -24991.39   -540.22686    768.70706    95.066217    14.530622    27.896587 
   80800    236.41756   -389.96723    204420.41   -23236.062     1715.983   -24952.045   -893.80735    772.42407    95.067992     14.52798     27.90054 
   81000    239.31012   -170.98934    204420.41   -23254.743    1736.9781   -24991.721   -51.740916    776.70313    95.067697    14.526715    27.907516 
   81200    241.20153   -169.39472    204420.41   -23244.812    1750.7064   -24995.519   -94.925977    776.11791    95.068977      14.5261    27.906108 
   81400    239.69577   -260.07262    204420.41    -23187.67    1739.7772   -24927.447   -371.17134    776.52569    95.071522    14.528395     27.92927 
   81600    237.14395   -269.98564    204420.41   -23259.539    1721.2554   -24980.795   -438.73059    776.67284    95.071724    14.527681    27.925905 
   81800     230.0448   -303.46118    204420.41   -23319.121    1669.7279   -24988.848   -534.04888    772.22197    95.070539    14.527232    27.923954 
   82000    236.48991   -422.69573    204420.41   -23246.695    1716.5082   -24963.204   -955.26015    767.42024    95.070601    14.525504    27.915519 
   82200    237.95453   -379.60558    204420.41   -23185.902    1727.1388   -24913.041    -822.9541     763.0778    95.069083    14.526818    27.907455 
   82400    239.59429   -461.96543    204420.41   -23194.099    1739.0407    -24933.14   -1066.8358    761.55996    95.066012    14.529046    27.891233 
   82600     245.8697   -355.71172    204420.41   -23131.972    1784.5893   -24916.561   -692.95791    757.35469    95.063731    14.527637    27.896685 
   82800    238.26612   -345.14772    204420.41   -23261.443    1729.4004   -24990.843   -696.11931    758.39399    95.064036    14.525806    27.882408 
   83000    239.64585   -437.77992    204420.41   -23184.598    1739.4149   -24924.013   -988.00496     758.7446    95.063976     14.52635    27.900738 
   83200    238.75411   -334.47739    204420.41    -23233.71    1732.9424   -24966.652    -648.2305    755.46181    95.062415    14.527446    27.903441 
   83400    239.15171   -250.86589    204420.41   -23188.304    1735.8283   -24924.133   -349.10037    749.81916    95.062389     14.52863    27.892519 
   83600    234.93387   -280.89398    204420.41       -23326     1705.214   -25031.214   -468.60302    751.84035    95.062325    14.525416    27.893842 
   83800    239.22851   -334.88121    204420.41    -23268.45    1736.3857   -25004.836   -678.10256    756.05178    95.061936    14.524428    27.874299 
   84000    241.95354   -261.58767    204420.41   -23258.613    1756.1647   -25014.778   -385.17858    760.42677    95.059781    14.524738    27.858716 
   84200    239.93668   -167.73658    204420.41   -23202.482    1741.5258   -24944.008   -92.573937    762.71651     95.05822    14.522839    27.848047 
   84400    239.03748   -506.40719    204420.41   -23280.175    1734.9992   -25015.174   -1254.4505      763.585    95.058596    14.522937    27.833013 
   84600    235.13667   -247.67446    204420.41    -23238.62     1706.686   -24945.306   -349.77331    759.64157    95.058878    14.524607    27.829015 
   84800    238.08731   -226.58205    204420.41   -23244.364    1728.1026   -24972.466   -308.27469    761.16572    95.057746    14.522326    27.819119 
   85000    240.63807    -561.7317    204420.41   -23191.104    1746.6167   -24937.721     -1440.93    769.27547    95.057138    14.519539    27.827778 
   85200    242.46078   -323.59358    204420.41   -23182.755    1759.8464   -24942.601   -634.91614    768.17384      95.0551    14.517104    27.839743 
   85400     235.7914    -338.2034    204420.41   -23309.252    1711.4382   -25020.691   -620.29452    767.60751    95.052633    14.513145     27.84102 
   85600    233.12969   -394.09152    204420.41   -23278.259    1692.1188   -24970.378   -841.93555    768.94385    95.050848    14.513443    27.836612 
   85800    234.97767   -465.89653    204420.41     -23286.8     1705.532   -24992.332   -1108.2945    767.91848    95.050063    14.514053    27.837106 
   86000    237.49038   -338.82339    204420.41    -23239.82    1723.7699    -24963.59   -669.53973    764.48582    95.048142    14.510969    27.845343 
   86200    236.73375   -491.61771    204420.41    -23201.91    1718.2781   -24920.188   -1181.8364     766.0029    95.050478    14.510931    27.818101 
   86400    241.94377   -183.20117    204420.41   -23292.484    1756.0938   -25048.578   -83.493902    761.60082    95.050417    14.510231    27.839587 
   86600    240.34953   -340.24511    204420.41   -23216.251    1744.5224   -24960.774   -649.20622    761.93964    95.051089    14.508625    27.829008 
   86800    234.14738   -272.24516    204420.41    -23269.62    1699.5055   -24969.126   -438.39527    761.10921    95.052029    14.509281     27.82992 
   87000    240.43303   -222.14028    204420.41   -23201.264    1745.1284   -24946.392    -274.8718    759.29903    95.050786    14.511845    27.830279 
   87200    246.13522    -291.9061    204420.41   -23181.666    1786.5165   -24968.183   -519.31865    756.48133     95.04976    14.514206     27.83249 
   87400    232.83975   -261.03494    204420.41   -23315.198    1690.0143   -25005.212   -377.31087    753.53497    95.050318    14.514216    27.830175 
   87600    245.14766   -455.15876    204420.41   -23197.676    1779.3485   -24977.025   -1059.9866     752.0633    95.050407    14.512827    27.832114 
   87800    241.08545   -457.05253    204420.41   -23246.337    1749.8639   -24996.201   -1059.1632    749.76806    95.050338    14.509366     27.79958 
   88000    237.88362    -426.8985    204420.41   -23254.758    1726.6241   -24981.382   -973.82864    750.82965    95.051205    14.507527    27.796705 
   88200    237.08635    -222.9459    204420.41   -23249.253    1720.8373    -24970.09   -286.42732    749.48165    95.052185    14.503086    27.786106 
   88400    237.13975   -440.60042    204420.41   -23202.758    1721.2249   -24923.983   -970.40078    749.75707    95.052808    14.500236    27.805372 
   88600    237.41291   -396.53815    204420.41   -23272.349    1723.2076   -24995.557   -888.31738    746.91388    95.052348    14.497796    27.805493 
   88800    231.10368   -377.41222    204420.41   -23229.823    1677.4135   -24907.236    -807.2744    745.48019    95.053425     14.49491    27.784572 
   89000    241.13055   -536.88632    204420.41   -23211.454    1750.1913   -24961.646   -1356.1129      745.412    95.053313    14.491956    27.761805 
   89200    239.55178   -461.06467    204420.41    -23230.51    1738.7321   -24969.242   -1068.3706    741.05124    95.053674    14.489731    27.773726 
   89400    239.24306   -271.04789    204420.41   -23206.503    1736.4913   -24942.995   -433.51443    739.98926    95.052192    14.487402    27.754083 
   89600    234.07445   -228.13569    204420.41    -23341.09    1698.9761   -25040.066   -261.65751    741.38477    95.052287    14.485868    27.775889 
   89800    241.30287   -500.52508    204420.41   -23224.354     1751.442   -24975.796   -1224.5349    746.73282    95.051201    14.484094    27.770694 
   90000    241.86764   -283.47816    204420.41   -23214.719    1755.5412   -24970.261   -435.53357     751.8808     95.05164    14.483474    27.783758 
   90200    239.23601   -326.21526    204420.41   -23266.175    1736.4402   -25002.616   -608.79842    754.57773    95.049915    14.481445    27.784396 
   90400    238.18142   -376.34635    204420.41   -23233.416    1728.7857   -24962.201   -800.58543    758.73142    95.049025    14.480331    27.755809 
   90600    243.63153   -415.22026    204420.41   -23240.232     1768.344   -25008.576   -927.07557    760.64266    95.049447    14.479581    27.762673 
   90800    243.08595   -383.46511    204420.41   -23247.664    1764.3841   -25012.048   -809.86931     757.6882    95.048295    14.478076    27.777043 
   91000    234.07093   -286.30826    204420.41   -23316.049    1698.9506   -25014.999   -485.22893    759.64161    95.047037    14.475036    27.759738 
   91200    236.31855   -264.63892    204420.41   -23385.603    1715.2644   -25100.867   -415.28123    762.86819    95.045782     14.47616    27.775341 
   91400    238.10602   -315.79224    204420.41   -23302.907    1728.2384   -25031.146     -587.331    765.15162    95.046199    14.479547    27.755777 
   91600    246.71408   -284.88397    204420.41   -23205.405     1790.718   -24996.123   -450.37786    766.93861    95.046725    14.483265    27.779083 
   91800    243.05086   -618.37489    204420.41   -23228.976    1764.1294   -24993.105   -1662.6575     769.2068    95.045851    14.487352    27.767574 
   92000     244.5299   -419.55508    204420.41   -23256.323    1774.8647   -25031.188   -924.22966    768.98585    95.045448     14.48977    27.775092 
   92200    239.19861   -377.27388    204420.41   -23240.478    1736.1687   -24976.647   -808.38977    773.27234    95.043611    14.494634    27.768256 
   92400    243.05947   -470.26695    204420.41   -23240.456    1764.1918   -25004.648   -1103.1817    777.02704    95.042444    14.495745    27.761935 
   92600    246.19078   -423.94997    204420.41   -23204.319    1786.9198   -24991.239   -928.50037    772.92627    95.044737    14.495079    27.761593 
   92800    243.37582   -215.79715    204420.41   -23302.772     1766.488    -25069.26   -216.96386    768.27866    95.046038    14.494403    27.765805 
   93000    237.02153   -512.64085    204420.41    -23310.33    1720.3669   -25030.697   -1246.3803    768.57028    95.047332     14.49721    27.768895 
   93200    241.75218   -396.25497    204420.41   -23274.162    1754.7032   -25028.865   -847.96615    769.27157    95.049303    14.498896    27.778197 
   93400    233.67516   -341.18786    204420.41   -23337.289     1696.078   -25033.367   -652.18512    768.90709    95.049474    14.500164    27.777896 
   93600    239.03714    -223.2262    204420.41   -23263.583    1734.9967    -24998.58   -238.84708    766.57099    95.048572    14.500092    27.782236 
   93800    241.05603   -313.41915    204420.41   -23312.947    1749.6504   -25062.597   -551.86061    767.38657    95.051849    14.502083    27.787952 
   94000    233.03112   -267.95503    204420.41   -23345.543    1691.4034   -25036.946   -370.23934    767.68276    95.053343    14.501607    27.799448 
   94200     242.8139   -331.59985    204420.41   -23253.718    1762.4094   -25016.127   -639.64143    771.41346    95.053616    14.502219    27.799362 
   94400    236.95114   -309.96887    204420.41   -23286.314    1719.8559    -25006.17   -530.92854     776.1169    95.054781    14.502079     27.80965 
   94600    242.11403   -289.23526    204420.41    -23275.37    1757.3296     -25032.7   -434.71187    776.24408    95.053915    14.506331    27.801497 
   94800     238.6551   -369.91599    204420.41   -23255.108    1732.2237   -24987.332   -767.53162    777.76127    95.053182    14.507943    27.782621 
   95000     236.3577   -239.75007    204420.41    -23273.85    1715.5486   -24989.399   -307.53899    781.06743    95.052798    14.509677    27.792037 
   95200    241.60558   -498.99441    204420.41   -23246.614    1753.6391   -25000.253   -1227.5578    783.00572    95.051416     14.50811    27.782784 
   95400    240.46549   -382.49211    204420.41    -23229.58    1745.3641   -24974.944   -801.00402    786.41634    95.053935     14.50678    27.780634 
   95600    243.98394   -259.25219    204420.41   -23189.463    1770.9019   -24960.365   -378.73875     786.4801     95.05623    14.508385    27.770114 
   95800    243.58595   -222.41301    204420.41   -23193.932    1768.0132   -24961.945   -275.54804    787.78667    95.056611    14.509435    27.776558 
   96000    246.95482   -549.49996    204420.41   -23209.481    1792.4654   -25001.946   -1379.1138    783.63875    95.057706    14.511997    27.782462 
   96200    244.84216    -395.4742    204420.41   -23187.911    1777.1311   -24965.042   -825.45364    777.71491    95.056709    14.512416    27.772234 
   96400    240.16764   -354.60177    204420.41   -23289.215    1743.2022   -25032.418   -701.14198    775.87204    95.055499    14.509719    27.768733 
   96600    239.05782   -326.54113    204420.41    -23317.47    1735.1468   -25052.617   -622.82142    773.32157    95.055448    14.507616    27.777883 
   96800    238.35072   -358.97203    204420.41   -23266.382    1730.0144   -24996.397   -719.55534    772.37663    95.055031    14.504117    27.777606 
   97000    236.05197   -366.84657    204420.41   -23273.213    1713.3295   -24986.543   -776.98439    773.64047    95.051614    14.507192    27.798442 
   97200    243.90909   -184.33725    204420.41   -23270.582    1770.3586   -25040.941   -92.116248    772.25923     95.05049    14.504804    27.800629 
   97400    238.28617   -222.28513    204420.41   -23253.333     1729.546   -24982.879    -237.7041    777.81232    95.051312    14.503616    27.795255 
   97600    242.14748    -357.6938    204420.41   -23188.339    1757.5724   -24945.912   -727.11556    782.07394    95.051661    14.503648    27.777333 
   97800    246.89771    -226.7934    204420.41   -23201.765    1792.0508   -24993.816   -268.70662    778.31732    95.049795     14.50535    27.788064 
   98000    240.56092   -300.62517    204420.41   -23243.101    1746.0567   -24989.158    -538.3077    771.97631    95.049171    14.504276    27.795813 
   98200    240.40813   -330.31926    204420.41   -23268.683    1744.9477   -25013.631   -622.13919     770.2754    95.050288    14.505638    27.788552 
   98400    243.01667   -280.40448    204420.41   -23202.324    1763.8812   -24966.205   -481.52836    769.76028    95.049688    14.509239    27.781128 
   98600    242.58377   -195.08987    204420.41   -23239.624    1760.7391   -25000.363   -169.88791    771.55328    95.048996    14.509574    27.780851 
   98800    236.82425   -244.70539    204420.41   -23202.192    1718.9349   -24921.127   -370.79809    776.69037    95.048086    14.511742    27.803547 
   99000    238.49306   -407.37976    204420.41   -23252.009    1731.0476   -24983.057   -907.24195    781.54679    95.049001    14.512345    27.829698 
   99200    244.97554   -442.30838    204420.41   -23234.881    1778.0992    -25012.98   -1006.8775    784.92664    95.049671    14.511838    27.827031 
   99400    244.48256   -293.63932    204420.41   -23214.151     1774.521   -24988.672   -465.00734     783.6996    95.049436    14.511539    27.807478 
   99600    239.07978   -309.51936    204420.41   -23205.537    1735.3062   -24940.843   -521.84196    782.07798    95.048211    14.513873    27.807672 
   99800    238.24507   -401.44564    204420.41   -23234.918    1729.2477   -24964.166   -879.59408    778.96516    95.049214    14.513745    27.797025 
  100000    239.73052   -357.53576    204420.41   -23241.023    1740.0295   -24981.052    -687.0436    779.11033    95.049407     14.51297     27.80222 
  100200    238.29877   -16.480935    204420.41   -23319.943    1729.6374   -25049.581    453.66628    776.08043    95.049103    14.512992    27.819635 
  100400    238.24963   -226.00862    204420.41   -23237.987    1729.2808   -24967.268   -224.89569    772.45606    95.050201    14.511521    27.824352 
  100600    241.26503   -283.79885    204420.41   -23251.798    1751.1673   -25002.965   -456.25274    771.11877    95.049887    14.511131    27.819688 
  100800    234.96558   -288.33537    204420.41   -23285.469    1705.4442   -24990.914   -504.85954    773.01672    95.050374    14.511507    27.832875 
[...]
 5175800    225.37691   -616.26512    204420.41   -25484.996     1635.847   -27120.843   -1454.9342    6808.6145    94.532116    15.395655    26.098241 
 5176000    222.57992   -758.74715    204420.41   -25508.659    1615.5457   -27124.205    -2017.384     6808.544    94.531745    15.398271    26.075199 
 5176200    223.47027    -552.2197    204420.41   -25515.307    1622.0081   -27137.315   -1246.9734    6797.1193    94.531425    15.400355    26.072324 
 5176400    229.46639   -638.83475    204420.41   -25453.642    1665.5296   -27119.171   -1581.4922    6799.1304    94.531155    15.400672    26.066215 
 5176600    230.54592   -642.98142    204420.41   -25392.945    1673.3651    -27066.31   -1602.5953    6804.3183    94.531839    15.400229    26.070234 
 5176800    231.35361     -696.863    204420.41   -25450.556    1679.2276   -27129.784   -1777.7254    6809.2915     94.53202    15.399549    26.070325 
 5177000    228.08542   -649.66303    204420.41   -25436.058    1655.5061   -27091.564   -1620.9499    6809.8187    94.533104    15.399865     26.07903 
 5177200     231.9314   -648.27241    204420.41   -25406.644    1683.4213   -27090.065   -1607.3949    6804.0796    94.533202    15.401282    26.079857 
 5177400    231.16365   -457.69085    204420.41   -25374.736    1677.8487   -27052.585   -941.60147    6795.8477    94.532217    15.402505    26.069102 
 5177600    227.84661   -735.65429    204420.41   -25455.016    1653.7728   -27108.788   -1862.0836    6805.3887    94.531755     15.40483    26.075968 
 5177800    224.19987   -619.93188    204420.41   -25489.469    1627.3038   -27116.772   -1513.5247    6808.5752    94.531657    15.406044    26.051511 
 5178000    224.04019   -623.74871    204420.41   -25483.353    1626.1447   -27109.498   -1497.1759    6811.9803    94.531704    15.405994    26.063147 
 5178200    225.24524     -707.791    204420.41   -25482.096    1634.8913   -27116.987   -1796.7669    6813.1602    94.532076    15.407097     26.07394 
 5178400    228.43418   -648.64226    204420.41   -25497.111    1658.0375   -27155.148    -1566.564    6807.3147    94.533331    15.408372    26.065609 
 5178600     226.4643   -611.70422    204420.41   -25462.706    1643.7396   -27106.446   -1512.1212    6797.9466    94.533178    15.410468    26.067119 
 5178800     220.6934   -705.97027    204420.41   -25462.998    1601.8528   -27064.851   -1826.5729    6799.3521    94.531917    15.411356    26.067962 
 5179000    224.87682   -590.42991    204420.41   -25492.963    1632.2172    -27125.18   -1391.6991     6802.483    94.531824      15.4134    26.065737 
 5179200    229.46172   -553.92622    204420.41   -25506.371    1665.4957   -27171.866   -1264.7049    6805.2957    94.531847    15.414228    26.078207 
 5179400    225.94483   -677.03246    204420.41   -25431.914    1639.9692   -27071.883   -1704.8218    6808.0468    94.532698    15.412961     26.06857 
 5179600    223.43824   -641.11031    204420.41     -25496.6    1621.7756   -27118.375   -1578.7697    6806.6123    94.533093    15.411907    26.072618 
 5179800    226.79195   -650.33266    204420.41   -25490.525    1646.1178   -27136.643   -1612.2594    6806.6087    94.533435    15.411491    26.065993 
 5180000    215.34145   -683.40125    204420.41   -25581.152    1563.0069   -27144.159   -1733.3517    6807.6174    94.532788    15.412685    26.088523 
 5180200     225.0001    -650.3205    204420.41   -25548.071     1633.112   -27181.183   -1617.8197    6796.4149     94.53215    15.415135    26.085185 
 5180400    232.19322   -556.05175    204420.41   -25480.012    1685.3217   -27165.334   -1320.6454     6794.844    94.531954    15.417575    26.082763 
 5180600    229.31453   -685.13975    204420.41   -25472.376    1664.4273   -27136.803   -1749.1436    6809.9614    94.531982    15.418322    26.089965 
 5180800    225.02513   -827.52425    204420.41   -25503.838    1633.2937   -27137.132   -2213.0215    6815.1196    94.531778    15.418604    26.079677 
 5181000    223.92776    -622.5573    204420.41   -25550.676    1625.3287   -27176.005   -1499.5358    6805.0197     94.53154    15.418333     26.08729 
 5181200    222.39439   -559.32897    204420.41   -25519.871    1614.1991    -27134.07    -1289.384    6797.8708    94.531253    15.418576      26.0866 
 5181400    232.60481   -613.69562    204420.41   -25438.902    1688.3091   -27127.211   -1482.6848    6798.4855    94.531485    15.420293    26.092213 
 5181600    222.21061   -732.93618    204420.41   -25555.684    1612.8651   -27168.549   -1888.9962    6804.3927    94.530424    15.422502    26.093302 
 5181800    224.90026    -604.5235    204420.41   -25444.594    1632.3874   -27076.981   -1446.1293    6799.2704    94.528303    15.423696    26.097584 
 5182000    226.51384   -658.91821    204420.41   -25470.859    1644.0992   -27114.958   -1624.7502    6801.8194    94.527942    15.425204    26.094055 
 5182200    231.93889    -592.8441    204420.41   -25452.197    1683.4757   -27135.673   -1435.3355    6807.3643    94.528271    15.424327    26.092451 
 5182400    223.68273   -767.34364    204420.41   -25519.119    1623.5502   -27142.669   -1978.6147    6817.0973    94.528198    15.422541    26.092952 
 5182600    224.57383    -540.9667    204420.41   -25479.997     1630.018   -27110.015   -1190.5788    6802.1531    94.527862    15.422566     26.07873 
 5182800    225.87324   -703.13948    204420.41   -25451.452    1639.4495   -27090.901   -1784.1665    6798.9139    94.527579    15.422125    26.090171 
 5183000    228.48211   -628.25874    204420.41   -25422.039    1658.3854   -27080.424   -1549.7508    6799.4987    94.527742    15.424507    26.086341 
 5183200    232.80117    -759.7619    204420.41   -25422.172    1689.7343   -27111.906   -1960.5769    6811.9149    94.527358    15.424948     26.09606 
 5183400    222.91557   -601.30857    204420.41   -25564.168     1617.982    -27182.15    -1449.032    6804.8518       94.527    15.425285    26.077948 
 5183600    220.08975   -634.03335    204420.41   -25533.364    1597.4714   -27130.835   -1542.2834     6790.894    94.527342     15.42527    26.068521 
 5183800    223.27167   -645.41421    204420.41   -25511.064    1620.5666   -27131.631   -1596.9891    6793.9098    94.527974    15.424985    26.076704 
 5184000    235.99801   -598.29432    204420.41   -25442.915    1712.9379   -27155.853   -1406.3631    6812.0896    94.528685    15.425051    26.072193 
 5184200    232.54476   -711.55991    204420.41   -25456.692    1687.8732   -27144.565   -1839.1085    6817.2286    94.527988    15.425478    26.076572 
 5184400    232.48297    -560.8188    204420.41   -25444.691    1687.4247   -27132.116    -1333.681    6798.2184    94.527892    15.427436    26.080337 
 5184600    224.53856   -663.24002    204420.41   -25492.699    1629.7621   -27122.461   -1644.3806    6791.2495    94.527133    15.429616    26.075904 
 5184800     228.9912   -621.36196    204420.41   -25467.769    1662.0805   -27129.849   -1521.0805    6800.4577    94.526936    15.431709    26.065757 
 5185000    224.25944    -767.2606    204420.41   -25473.646    1627.7361   -27101.382   -2035.4374    6815.0779    94.527025    15.433745    26.063645 
 5185200    222.59778   -605.87561    204420.41    -25543.66    1615.6754   -27159.336   -1445.4327    6810.5785    94.527628    15.434862    26.065817 
 5185400    225.47172    -706.1725    204420.41   -25474.129    1636.5352   -27110.664   -1808.1536    6805.0341    94.527316     15.43617    26.061691 
 5185600    223.28986   -649.89582    204420.41   -25480.139    1620.6987   -27100.837   -1640.9094     6794.691    94.528697    15.436215    26.055807 
 5185800    228.97433   -589.02807    204420.41   -25443.886    1661.9581   -27105.844   -1412.4384    6797.3269    94.528401    15.438664    26.068458 
 5186000    230.41533   -681.34697    204420.41   -25461.591    1672.4172   -27134.008   -1693.4933    6805.9423    94.527766    15.440904    26.075713 
 5186200    232.26953   -829.17637    204420.41    -25433.78    1685.8755   -27119.656   -2243.4011    6802.0036    94.526603    15.443275    26.067168 
 5186400    228.57261   -562.56669    204420.41   -25473.259    1659.0423   -27132.301   -1308.4721     6798.139    94.526437    15.443854    26.069366 
 5186600    222.11501   -716.39978    204420.41   -25459.152    1612.1712   -27071.323   -1829.1433    6801.2588    94.526652    15.444963    26.067156 
 5186800    226.66002   -632.84817    204420.41   -25467.167    1645.1602   -27112.327   -1514.9053    6806.8975    94.525902    15.446239    26.074607 
 5187000    231.34172   -719.36263    204420.41   -25435.761    1679.1413   -27114.903   -1898.7702    6812.8502    94.526406    15.447472    26.080855 
 5187200    219.95851   -748.41307    204420.41   -25480.573    1596.5188   -27077.092   -1930.5495    6804.5932    94.526589    15.448527    26.075185 
 5187400    223.58125   -514.32304    204420.41    -25521.51    1622.8136   -27144.324    -1100.858    6791.9921    94.526932     15.44973    26.068256 
 5187600    227.69508   -667.05703    204420.41   -25436.899     1652.673   -27089.572   -1658.8002    6803.3123    94.527529    15.449611    26.069647 
 5187800    227.77152   -687.37425    204420.41   -25487.055    1653.2277   -27140.282   -1780.9599    6813.0323    94.527013    15.449689    26.061969 
 5188000     227.6157   -682.51695    204420.41   -25418.989    1652.0968   -27071.086   -1752.0428    6810.7096     94.52793    15.451444    26.059169 
 5188200    227.65672   -538.34604    204420.41   -25456.676    1652.3945    -27109.07   -1237.7236    6795.2247    94.527887    15.451727    26.050197 
 5188400    228.56797   -721.41275    204420.41   -25449.971    1659.0086    -27108.98   -1857.5842    6794.4409    94.528546    15.452063    26.051153 
 5188600    226.73092   -682.38418    204420.41   -25495.859    1645.6748   -27141.534   -1722.3997    6806.0365     94.52832    15.453427    26.056929 
 5188800    225.46751   -773.45853    204420.41   -25535.215    1636.5047   -27171.719   -2056.2211    6813.7348     94.52811    15.453991    26.052261 
 5189000    222.62046    -561.8771    204420.41   -25498.074      1615.84   -27113.914   -1277.2293    6802.1711    94.528615    15.455371    26.058059 
 5189200    217.30663   -637.98643    204420.41   -25598.484    1577.2707   -27175.755   -1520.7362    6797.7781    94.529038    15.457146    26.073247 
 5189400    223.14323   -643.89859    204420.41   -25537.736    1619.6344    -27157.37   -1587.2616    6797.6827    94.529169    15.457254    26.066425 
 5189600    226.97946   -650.09097    204420.41   -25471.271    1647.4788   -27118.749   -1627.4497    6805.2243    94.530314    15.458294     26.06941 
 5189800    221.79968   -669.34086    204420.41   -25496.532    1609.8825   -27106.415   -1688.7783    6806.2856    94.530341     15.46037    26.067915 
 5190000    223.29418   -629.89801    204420.41   -25498.109      1620.73   -27118.839    -1562.568    6802.7975    94.529456     15.46185    26.064432 
 5190200      222.742   -595.77892    204420.41   -25517.379    1616.7221   -27134.101   -1456.7136    6796.4457    94.528652    15.461373    26.079488 
 5190400    230.95011   -574.57328    204420.41   -25423.235    1676.2988   -27099.534   -1354.5773    6806.1233    94.529122    15.461753    26.074208 
 5190600    228.61936    -698.6115    204420.41   -25491.748    1659.3816    -27151.13   -1794.0473    6815.1357    94.528689    15.462595     26.07965 
 5190800    223.60382   -681.95466    204420.41    -25467.53    1622.9775   -27090.507    -1756.225    6806.2449    94.528491    15.462513    26.067661 
 5191000    227.31736   -609.53368    204420.41   -25491.984    1649.9313   -27141.915   -1504.6616     6796.738    94.528544    15.463416    26.085785 
 5191200    229.41676   -687.64497    204420.41   -25498.084    1665.1693   -27163.253    -1727.055    6800.1892    94.528467    15.465207    26.075436 
 5191400    229.90296   -643.40347    204420.41    -25470.36    1668.6983   -27139.058   -1562.9085    6808.4082    94.528155    15.466532    26.073733 
 5191600    222.66715   -653.85397    204420.41   -25489.857    1616.1789   -27106.035   -1643.7076    6807.4672     94.52775    15.466494     26.06799 
 5191800    226.68986   -625.34575    204420.41   -25440.852    1645.3768   -27086.229   -1558.0713    6800.4454    94.528127    15.466442    26.068586 
 5192000     230.9467   -684.01578    204420.41       -25431     1676.274   -27107.274   -1699.5438    6804.8731    94.527853    15.466187    26.078903 
 5192200    225.19885   -668.06146    204420.41   -25489.282    1634.5546   -27123.836   -1678.1123    6804.1895    94.527389    15.468224    26.068013 
 5192400    226.68351   -591.60233    204420.41   -25492.429    1645.3306    -27137.76   -1405.9194    6806.9178    94.528117    15.469918    26.061788 
 5192600    226.36993   -671.20346    204420.41   -25521.633    1643.0547   -27164.687   -1704.2364    6807.6137     94.52827    15.470605    26.054263 
 5192800    230.17386   -742.32656    204420.41   -25475.029    1670.6646   -27145.693   -1925.6944    6809.4262    94.527623    15.471282    26.050897 
 5193000    220.95861    -621.7011    204420.41   -25542.241    1603.7778   -27146.018   -1550.7934    6799.9133    94.527945    15.473108    26.062292 
 5193200    227.75449   -784.93254    204420.41   -25473.519    1653.1042   -27126.623   -2050.3346    6804.5671    94.527765     15.47421    26.062762 
 5193400    225.74079   -544.29072    204420.41   -25464.976    1638.4882   -27103.464   -1239.8821    6799.8141    94.527705    15.475976    26.069885 
 5193600    225.43133   -729.55386    204420.41   -25450.242     1636.242   -27086.484   -1890.5387     6803.009    94.527469    15.477086    26.077524 
 5193800    227.02434   -695.25362    204420.41   -25466.055    1647.8045   -27113.859   -1748.7431    6807.0269    94.527575    15.477695    26.070335 
 5194000    215.91858   -683.24639    204420.41   -25563.124    1567.1959    -27130.32   -1764.8433    6802.0216    94.527067    15.476636    26.073096 
 5194200    226.94667   -588.74952    204420.41   -25508.532    1647.2408   -27155.772   -1356.2557    6795.0192    94.526548     15.47592    26.074513 
 5194400    231.81566   -638.39393    204420.41   -25469.094    1682.5812   -27151.675   -1580.2662    6808.7541    94.525626    15.475477    26.078116 
 5194600    231.21352   -647.95349    204420.41   -25438.026    1678.2107   -27116.236   -1580.9588    6811.0373    94.525299    15.475174    26.072321 
 5194800    230.13126   -681.01102    204420.41   -25465.118    1670.3554   -27135.473   -1718.7035     6803.114    94.525687    15.475419    26.073497 
 5195000    220.03673   -600.04975    204420.41    -25470.61    1597.0865   -27067.696   -1449.4895    6792.2467    94.524973    15.475324    26.072903 
 5195200    225.95083   -684.11386    204420.41   -25467.311    1640.0127   -27107.324   -1729.5964    6804.7507    94.524674    15.474508    26.076622 
 5195400     223.4529   -652.77729    204420.41    -25468.86     1621.882   -27090.742   -1613.3547    6807.7543    94.524961    15.474798    26.080541 
 5195600    223.37025   -639.61912    204420.41   -25511.484    1621.2822   -27132.766   -1573.6487    6804.7553     94.52457    15.475389    26.079793 
 5195800    234.53892   -586.87691    204420.41   -25393.355    1702.3474   -27095.703   -1374.6732    6798.6034    94.525062    15.475778    26.069834 
 5196000    229.71074   -805.27839    204420.41   -25468.093    1667.3031   -27135.396   -2200.3256    6806.1867    94.524419    15.476118    26.074829 
 5196200    224.71666   -625.16057    204420.41    -25473.76    1631.0548   -27104.815   -1557.3686    6805.8916    94.523967     15.47662    26.066318 
 5196400    223.84207   -738.72682    204420.41    -25463.41    1624.7067   -27088.117   -1877.0818    6809.8841    94.523718    15.476619     26.06339 
 5196600    232.49497    -706.2319    204420.41   -25449.667    1687.5119   -27137.179   -1818.5444    6803.9507    94.524256    15.476308    26.076733 
 5196800    231.95598   -645.05066    204420.41   -25432.026    1683.5997   -27115.626    -1561.832    6801.2702    94.523554    15.475905    26.058342 
 5197000    238.36628   -567.70092    204420.41   -25399.036    1730.1274   -27129.164   -1316.5328     6800.571    94.523508    15.473379    26.056767 
 5197200     224.8726   -779.43066    204420.41   -25484.802    1632.1866   -27116.988   -2088.4429     6811.785    94.522709    15.474131    26.062842 
 5197400     225.4131   -697.92845    204420.41   -25493.885    1636.1097   -27129.994   -1744.4831    6806.9048    94.521736    15.475072    26.071362 
 5197600    225.23661   -622.41915    204420.41   -25523.976    1634.8287   -27158.804   -1486.1737     6796.197    94.520846     15.47529    26.066317 
 5197800    218.12788    -572.2339    204420.41   -25553.682    1583.2316   -27136.913   -1367.2319    6799.3036    94.521139    15.475643    26.070702 
 5198000    225.63764   -780.06672    204420.41   -25434.258    1637.7395   -27071.997   -2079.9854    6809.2604    94.520339    15.476868    26.074411 
 5198200    229.06742   -703.46689    204420.41   -25451.514    1662.6338   -27114.148   -1812.6555    6809.7584    94.520571    15.477265    26.071943 
 5198400    227.17777   -652.38286    204420.41   -25510.759    1648.9182   -27159.677   -1642.1692     6800.378    94.521031    15.478724    26.066406 
 5198600    222.17645   -748.57155    204420.41   -25557.555    1612.6172   -27170.172   -1952.0612    6799.0224    94.520963    15.480046     26.05648 
 5198800    224.94311   -600.98747    204420.41   -25484.811    1632.6984   -27117.509   -1458.8641    6807.0859    94.521042    15.481074    26.066755 
 5199000    229.11631    -816.5725    204420.41   -25425.419    1662.9886   -27088.408   -2194.1731    6813.9686    94.522106    15.482154    26.062989 
 5199200    233.32747   -530.18158    204420.41   -25492.897    1693.5544   -27186.451   -1140.5883    6796.9166    94.521826     15.48367    26.060028 
 5199400    227.68456   -661.42046    204420.41   -25484.024    1652.5966   -27136.621   -1661.9271    6799.5702    94.521673     15.48365    26.068776 
 5199600    225.24861   -635.83238    204420.41    -25476.55    1634.9158   -27111.466   -1609.5418    6807.8226    94.521333    15.484932    26.066733 
 5199800    226.54108   -854.07191    204420.41   -25486.019    1644.2969   -27130.316   -2297.2167    6812.3556    94.521201    15.485431    26.059941 
 5200000    230.33386   -565.70533    204420.41   -25441.442    1671.8259   -27113.268   -1343.1145    6799.6189    94.520908     15.48683    26.063044 
Loop time of 7790.92 on 120 procs for 5200000 steps with 8482 atoms

Performance: 576.671 ns/day, 0.042 hours/ns, 667.443 timesteps/s
98.3% CPU use with 120 MPI tasks x no OpenMP threads

MPI task timing breakdown:
Section |  min time  |  avg time  |  max time  |%varavg| %total
---------------------------------------------------------------
Pair    | 0.25557    | 2390.8     | 6391.9     |4724.7 | 30.69
Neigh   | 0.42629    | 124.45     | 468.18     |1316.3 |  1.60
Comm    | 36.886     | 2323.4     | 6445.1     |4239.9 | 29.82
Output  | 98.579     | 98.672     | 100.77     |   2.0 |  1.27
Modify  | 290.05     | 2797.1     | 7598       |5289.4 | 35.90
Other   |            | 56.5       |            |       |  0.73

Nlocal:    70.6833 ave 226 max 0 min
Histogram: 39 20 31 0 0 0 0 0 12 18
Nghost:    610.025 ave 972 max 6 min
Histogram: 16 0 4 0 10 18 16 20 22 14
Neighs:    0 ave 0 max 0 min
Histogram: 120 0 0 0 0 0 0 0 0 0
FullNghs:  7193.25 ave 28362 max 0 min
Histogram: 71 19 0 0 0 0 0 4 16 10

Total # of neighbors = 863190
Ave neighs/atom = 101.767
Neighbor list builds = 553796
Dangerous builds = 0
write_data 		${DIR}/data.${NAME}_run
write_data 		run_27/data.${NAME}_run
write_data 		run_27/data.ibeam_cooling_27_run
Total wall time: 2:10:08
