LAMMPS data file via write_data, version 29 Oct 2020, timestep = 60654

1902 atoms
1 atom types

0.0 78.752 xlo xhi
0.0 68.92587069519459 ylo yhi
0.0984904565747442 23.901509543425576 zlo zhi

Masses

1 18.015

Atoms # atomic

21 1 23.40016085734788 1.8208043852541302 2.594553051955287 0 1 0
269 1 26.282533221242968 2.415737899690762 2.2371258560025904 0 0 0
63 1 31.663034741094084 1.7453024065647125 4.305349890567464 0 1 0
295 1 30.87925153965228 15.529762559874458 0.22424863114787066 0 0 1
64 1 34.50578590479964 0.6578439881260866 3.452175972266388 0 0 0
258 1 36.761207544283174 0.5564052815853338 17.11128715138917 0 0 0
310 1 25.658636170079156 4.993200745818165 3.495877090064628 0 0 0
109 1 28.602014383898855 4.331169657904276 2.414239506285632 0 0 0
10 1 27.23546667834268 7.5956036915238 3.3829830535712304 0 1 1
11 1 33.21320792470237 5.779988575381889 2.595475339031105 0 0 0
289 1 31.32544699791655 3.77565336997635 2.2304693633755455 0 1 0
57 1 36.440960907764726 2.0900977798019875 4.8269601750077715 0 0 1
303 1 39.281618047032 18.79831798838896 23.539548798229735 0 0 0
24 1 29.681952399719 11.62983450575494 4.083693623244062 0 0 0
62 1 32.062414627516944 8.173601666402451 1.8188535001872288 0 1 0
6 1 35.033107023561804 5.594670895988889 4.604680894489041 0 0 0
13 1 37.653304935601945 5.67986560559392 3.0397539031247702 0 0 1
160 1 24.23758157326075 11.05821237065578 0.8446685025097699 0 0 1
282 1 25.20221028535333 13.47871105001622 0.19082834137924734 0 0 1
15 1 25.65578685905157 10.156979014926227 3.15881226946974 0 0 1
23 1 28.086565285616274 12.37143323214793 0.20176441443572105 0 1 0
37 1 31.296950530901377 13.583773303796017 2.4231351759138127 0 0 1
281 1 33.425192410488904 9.679863735594443 4.103530395037541 0 0 1
20 1 35.01575169929839 13.468341022117515 0.3465069856610315 0 1 0
1044 1 38.8061959902817 11.360638277627084 0.8688171401027808 0 0 0
16 1 25.357885850417983 15.85346373370774 1.4116684770959997 0 0 0
126 1 32.36738801312753 16.446460669036085 4.063471589648687 0 0 0
25 1 31.077974748229092 14.340134147789286 5.52871519076248 0 0 0
296 1 32.739186149461226 11.462891288809448 1.6307119386343303 0 0 1
291 1 23.32479412597654 17.977568628036384 2.03024424038595 0 0 1
325 1 24.92222325358222 19.49831215257 23.723845965751995 0 0 -1
284 1 27.03868329177811 15.558974551066829 3.659215185775072 0 0 1
247 1 30.353535467903473 18.199803915383843 0.6704876248288267 0 0 1
50 1 30.443866739727653 18.25427028164075 3.4681029642926764 0 0 1
99 1 34.3082715326842 14.09724265678213 3.138741241470835 0 0 1
1141 1 38.470867176729044 0.4363055743816249 19.88070768017962 0 1 0
30 1 27.52567621262458 19.752730117955764 1.2189299832452372 0 0 0
226 1 29.307693791544253 20.79796314511009 22.392517796328683 0 0 0
42 1 32.24669197192175 21.254215541654073 2.5610754189626284 0 0 0
106 1 36.87151655987467 19.13844229165312 3.690416018396166 0 0 0
253 1 34.738854251948574 22.616983836885584 20.30849486534123 0 0 0
212 1 24.549013212960535 2.275401546284533 17.266812005029415 0 0 0
946 1 25.080976256445975 1.669205482235222 5.8863745652583965 0 1 0
48 1 31.908059678124076 20.349210545075945 23.851958645376367 0 0 0
312 1 22.70546282311091 2.701660226198144 5.0091479872027085 0 0 1
474 1 29.573614000023223 21.985350630929833 17.286407836912602 0 0 1
8 1 23.2938198323293 5.520956366346442 5.033922383229379 0 1 0
1 1 26.567023816865966 4.039712770374812 6.208888425131519 0 0 0
198 1 29.119761323866527 5.083516305181422 5.064178721164808 0 1 0
261 1 29.966197842480042 9.09407446600697 3.260639594836459 0 0 1
61 1 32.788257444272936 6.179107586277969 6.445692339966168 0 1 0
116 1 31.215345550317714 3.798968269362623 6.5843092495213815 0 1 0
998 1 38.69719060753469 3.2741786023106 3.726755830923702 0 1 0
73 1 25.161418048082332 6.138416085615886 7.24867714782857 0 0 0
17 1 26.512976425684826 8.46105032339438 5.8816325125750275 0 0 0
121 1 29.02486185355684 8.780313268529056 7.514024816395912 0 0 0
67 1 31.8818692350597 10.538603359086828 6.213354102848155 0 0 0
90 1 38.30176926341105 8.275382644754343 4.234874973795419 0 0 0
1052 1 38.11637141036618 1.4666770155731288 7.326831111779259 0 0 0
31 1 27.29907268095731 12.358914399185783 2.875260801709521 0 0 0
119 1 28.569258120159418 11.277580161959511 6.7370444629658675 0 1 0
110 1 33.4324338827082 13.08864346986318 6.904349118618566 0 0 1
69 1 35.73037426861108 8.255491218604945 5.341703294782342 0 0 0
153 1 37.90064179077212 10.987616237730661 3.4686791168900055 0 0 0
18 1 35.467891727393585 11.917680699672175 4.384338324011602 0 0 1
32 1 25.77676599916442 13.87542845800215 5.790112772835455 0 0 0
77 1 32.377428012085375 16.19280136280382 7.4304315493158075 0 0 1
135 1 29.92119441810481 13.19270822008827 8.225682423158032 0 0 0
154 1 35.144083196646356 15.66254592652304 7.068304937825156 0 0 0
27 1 36.073891592433576 15.82114039447673 4.053756708305735 0 0 0
85 1 36.762087483198485 13.195116508451166 6.9777089373834205 0 0 0
38 1 24.8329655223333 18.885264878941285 4.217717974523332 0 1 0
204 1 33.89963096063106 18.702788272677434 7.957761834913842 0 0 1
19 1 31.708568068751312 0.8613992088026721 7.297285653764047 0 0 0
104 1 29.77549871969491 0.5697664895397652 9.03409154238627 0 0 1
92 1 26.570167634688076 21.54868290724787 5.037766273237898 0 0 0
165 1 27.33833511049218 18.201141142907375 3.5517593149774744 0 0 0
41 1 31.17554777369249 20.315621211926224 5.094218897598937 0 0 1
108 1 34.44080083769474 18.175076781747077 5.006972948410472 0 0 0
589 1 24.45927112192515 22.46935865845269 23.391764146758582 0 0 0
331 1 37.409025324726954 21.562749063193685 8.70669081748277 0 0 1
59 1 21.8591961818665 1.204936783259411 7.5280508434695 0 0 1
203 1 37.39832773331234 1.0152909738257816 14.439632642075756 0 1 0
58 1 22.678261882086705 3.3819234854432287 9.710014437086189 0 0 0
43 1 39.332368846774614 14.037032979662827 8.974189322456398 0 0 0
1098 1 38.72856881298639 17.65954890283261 19.065184318437108 0 0 -1
685 1 33.96726002523847 2.058924651214581 8.613298438256946 0 1 0
964 1 38.91114996261373 11.275723344380967 8.804993390557605 0 0 0
230 1 38.94149434954354 13.361159729892739 21.691216330917523 0 0 0
60 1 23.52640582889725 5.92316642053644 9.51673193257928 0 1 0
97 1 24.909855669868673 1.9176160212635944 8.787639362205281 0 1 0
68 1 28.638947579503146 3.1782921106384436 8.150451280997473 0 1 0
78 1 28.822024020508618 5.204314783333939 10.13797300433037 0 0 0
166 1 31.528553873397414 6.138515264080235 10.80963033747254 0 0 0
129 1 32.716627585275 3.541796639845955 10.91118267014307 0 1 0
123 1 36.67920760920816 6.551001491624863 9.91418279345171 0 0 0
1673 1 35.47058100578859 3.569820346489941 6.575483729583236 0 1 1
115 1 37.22218074464381 14.74426623781289 1.3109055410285164 0 0 0
114 1 27.31308881231655 7.198121561971811 9.357161981008655 0 0 0
169 1 26.996835910476797 7.965759248956322 12.205126808664065 0 1 0
113 1 30.331558744120976 7.601357353897757 5.3194491079346005 0 0 1
70 1 33.754227138135775 7.205122311459295 9.124339373186666 0 1 0
76 1 36.68666781309357 8.518888432531902 7.790260172294401 0 0 -1
146 1 28.393533788128412 11.921245988660653 10.38027330915043 0 0 0
118 1 25.799139609099022 11.297024126005978 6.718144765302119 0 0 0
221 1 29.73907652552225 9.653858187731071 10.048086266355568 0 0 0
168 1 32.228813695438596 13.234528746438158 9.521976306563582 0 0 -1
75 1 32.51503357616687 10.578542684508074 10.283752250736715 0 0 0
120 1 33.94604066536863 9.696461070540519 8.102592293579312 0 0 0
1188 1 38.3728783144538 15.702934866485252 15.884575653582111 0 0 0
93 1 25.40799832766626 14.648289158206802 10.034131259930763 0 0 0
74 1 28.456718609593537 15.168279887982832 6.39432021776107 0 1 0
183 1 34.82405377002687 14.906616303626873 9.861650615427031 0 0 1
130 1 32.565993853978966 16.529397226234547 10.638775122321228 0 0 0
902 1 31.218027962716434 1.0834691440804123 11.68889230639735 0 1 0
22 1 24.273360426383235 15.13204303875534 7.536637596493765 0 0 1
36 1 24.53728104009057 17.75319747440222 6.896612313446618 0 0 0
39 1 29.38772360172278 22.342362756611806 5.975455656162711 0 0 0
29 1 26.936486744219767 18.818856776011454 7.892732011592385 0 0 0
182 1 30.950532967031254 18.319706855561904 8.73734140286992 0 0 0
195 1 29.06213671995141 17.97182035189783 6.2882295235975985 0 0 0
44 1 36.01924845540707 19.197655382772165 9.639718731390657 0 0 1
145 1 36.71311754839702 21.464839657887534 13.650897971444504 0 0 0
185 1 23.391200217560247 19.46099096141324 9.061522045274797 0 0 0
87 1 27.399101501636217 21.71479761590496 8.171608479945773 0 0 0
81 1 31.638784169774915 20.655715743350946 9.862525176272541 0 1 0
84 1 39.079392105017874 11.437111593278049 13.4871374115423 0 0 0
117 1 23.134135292827157 1.1006800457733839 11.95255027118711 0 0 0
111 1 27.227038022937464 2.1096643808187476 10.420188797136538 0 1 0
681 1 31.079408104642827 2.0251362543578786 14.361621765636711 0 0 0
260 1 33.85216619822972 1.1550519435331696 16.92264205422627 0 0 0
159 1 35.43737285672099 0.9392510475894391 12.625439338900014 0 0 0
225 1 33.44149297765676 3.0685648471563427 13.496675783323662 0 0 0
186 1 26.435291610799766 22.79603396494688 14.32274172447209 0 0 -1
7 1 36.62275395799103 3.5280010947258944 11.989905463508707 0 0 0
103 1 27.31842198078301 4.135430502292725 12.105370472539914 0 0 0
223 1 34.739847607550054 5.67202875673531 11.99021670847822 0 0 1
100 1 25.15230783984353 6.08921073931183 11.988882547279195 0 0 0
181 1 23.706376288291263 7.403608399321732 14.208837088498365 0 1 0
127 1 29.853885730821986 8.025820607312747 12.650282747700563 0 0 0
220 1 30.681707832114316 10.630818340804614 13.521948241331469 0 0 0
170 1 33.32357011018264 8.61851154329377 12.512702270592497 0 0 0
163 1 36.218639492070146 9.212663241150382 11.697305874917138 0 0 0
4 1 36.24234331451191 11.26523623032197 9.265065781660391 0 0 0
71 1 25.74254809221999 12.050759005152871 9.549219579496759 0 0 0
80 1 25.673823544468522 10.238871680818624 11.794463909761278 0 0 0
14 1 28.6826278413546 12.464633551773456 13.175315298864884 0 0 0
174 1 26.18042313178146 11.74655431695323 14.062490492820332 0 0 0
128 1 33.421724771282925 11.714660598077433 13.363373194619575 0 1 0
176 1 35.83842261911972 12.6127963116294 11.886401932083581 0 0 0
179 1 36.732836578745626 13.228676090005209 14.382114126442122 0 0 0
132 1 25.129009582992158 15.853584865270284 12.786464427478064 0 0 0
194 1 28.11515401041427 15.048393598264852 9.517706677860152 0 0 0
133 1 30.590947379685918 14.765913026345629 11.571825335450068 0 0 0
177 1 32.189759743608775 14.261759479218899 13.755097053595238 0 0 -1
191 1 37.44981200522806 17.027925212873143 8.71011011915387 0 0 0
173 1 28.658945626461477 17.533449319655475 10.383739810401355 0 0 0
143 1 26.542946718844735 18.499903790202143 12.080800899845897 0 0 0
82 1 32.63691194522205 19.678294280352574 12.570503152756881 0 0 0
33 1 35.067233606748026 17.389375465207095 11.950405092643651 0 0 0
190 1 35.430781770971144 19.096381621804955 14.244170656903991 0 0 0
233 1 25.855193678654796 18.223581672230775 21.234347141850286 0 0 0
137 1 25.699174071675273 20.506056422000807 10.422560958562379 0 0 -1
251 1 27.525312847536725 22.167749704220267 2.603092806728363 0 0 0
1307 1 37.14780688010377 22.95696807437486 4.323344673022239 0 0 1
89 1 34.639225180610545 21.555732510806052 11.068306230094285 0 0 0
252 1 38.377280882487526 22.06267241280305 15.719923135528468 0 0 0
202 1 38.81743785108649 22.14660787406228 12.175299533084981 0 1 0
684 1 26.543102968990553 1.6008491774065263 14.937752739668191 0 1 0
890 1 21.27223745818335 1.1419719935918735 14.321292454625999 0 1 -1
161 1 27.92006870124746 3.295099085989761 17.22799934705461 0 0 0
86 1 33.798005792553596 21.390220595768998 6.361903214605215 0 0 0
51 1 37.05484998760371 17.899826667864005 1.2798871920647417 0 0 1
217 1 24.825450394606996 2.8287762315267044 13.179228704208484 0 0 -1
66 1 23.266509733181085 4.52390603509904 15.168369313860081 0 0 1
219 1 25.579243033999028 5.394559577223859 16.6249841275853 0 0 -1
167 1 29.524669327505055 6.517647263166833 15.355526158777785 0 0 -1
207 1 28.773418784994767 3.664083393156495 14.44002034532671 0 1 0
164 1 33.656565700985645 5.268264523687491 15.26661184791304 0 1 0
273 1 36.173820416426686 6.3630859534526145 15.421259864677282 0 1 -1
171 1 38.22148639618248 4.411098289916843 14.623745041295575 0 0 -1
162 1 26.837160889430727 7.468440160122648 15.020261027161892 0 1 0
157 1 32.102759905572185 7.6644555183520024 14.716370430875974 0 0 0
238 1 32.92977862561473 9.618978057497216 16.546258711371216 0 0 -1
270 1 36.8911088805434 9.11070091233758 14.39833944530238 0 0 0
228 1 27.268418879814053 9.861234618994537 16.29694148106871 0 0 0
134 1 30.054970299463115 10.91145759739219 16.29554665075725 0 0 -1
294 1 30.457550847378222 13.796794115531975 15.90709937386457 0 0 0
122 1 35.37789984874113 10.997774642870537 15.720201014528785 0 0 0
239 1 36.666068554205744 12.07581301572477 18.345866549705363 0 0 -1
142 1 25.943414024859443 14.259291688465122 14.9563479172031 0 0 0
175 1 28.372095109399304 15.170366785750613 15.742783705543676 0 0 0
136 1 29.036485397385963 16.499097201659986 13.139344768669698 0 0 0
236 1 31.87861851552518 13.794206974824043 18.63680106744468 0 0 0
144 1 34.99693117070401 15.24546717416544 14.072335568474351 0 0 1
240 1 33.53604833866342 15.221909810904826 16.5572683330092 0 0 -1
148 1 30.414220151528433 18.399586369651388 14.367470975511685 0 0 1
180 1 31.84959016605404 17.61155987290348 16.779485325022765 0 0 0
192 1 35.92379333473808 17.123612820563114 16.331777865471825 0 0 0
1114 1 35.97986377975768 17.93736267902021 19.19586755276326 0 0 -1
201 1 35.007898168640956 20.421968817915857 18.536401742158475 0 0 0
419 1 29.35599603038581 22.554473215075745 12.392101872332782 0 0 0
323 1 28.323317285957696 20.129535821373594 13.319163075161818 0 0 1
243 1 27.33287846014323 20.45084042287041 15.98199905449422 0 0 -1
187 1 31.887354036140163 22.009690398429647 13.599468454314612 0 0 0
481 1 32.11865610180518 22.368909944904647 16.426350855524532 0 0 0
193 1 33.51366513198106 19.993695850632648 16.388640684432836 0 0 0
762 1 21.15103459572851 1.8925419774593801 19.180963569681808 0 0 -1
52 1 21.735032788697797 2.762841841981029 16.523705351608072 0 1 0
65 1 38.54733068791482 14.859289525690285 5.495546704115409 0 1 0
205 1 28.971842120138284 0.3780633517751646 18.30474436831836 0 1 0
227 1 28.660031172484153 3.109385539404613 19.97582707419302 0 0 0
272 1 38.321161781086545 3.069524187096146 17.035853578687444 0 0 0
250 1 27.2970592736436 22.760331242631977 23.14236174471478 0 0 0
214 1 21.906794927636554 4.090667850621635 21.210166756858797 0 1 0
271 1 30.99765685259453 4.72975600117563 19.16175127193997 0 0 0
216 1 33.1175022942433 3.907036049443753 17.376428727560256 0 1 0
215 1 35.993582641874475 3.754202757596934 18.46910957499587 0 0 -1
1161 1 36.055813286918266 6.601674707477212 18.072190944970593 0 0 0
213 1 25.31482427525059 6.0829956501639675 19.48543600847674 0 0 0
218 1 24.36960845411863 9.34625832298056 19.96993538394096 0 0 0
276 1 27.5752857280643 7.890687724407308 18.62250640740732 0 0 0
156 1 27.796106333860262 10.178423756908101 22.295216370529534 0 0 -1
285 1 30.316126167002544 7.0358364905822155 18.059698247318583 0 0 0
278 1 33.450776451353285 7.866024904901806 18.688324312498 0 0 0
1154 1 38.09376327643881 7.771607089391717 19.27439864981535 0 0 0
274 1 26.328279439713924 11.456495290768919 20.190963530889505 0 0 0
49 1 28.60540336455908 11.567046543519199 18.96474316789721 0 0 0
222 1 32.00274557515666 10.866479484443358 19.044999891850278 0 1 0
309 1 34.82430768480066 9.477091179304876 20.772585139516135 0 0 -1
288 1 37.559770638566754 10.569466883897494 20.234863553834924 0 0 0
232 1 29.192391193618555 14.230050877141167 20.104998185413635 0 0 0
234 1 25.756941856588767 16.012107433538624 19.615233804815514 0 0 0
141 1 31.596277051086588 15.908554551600322 20.634184764162015 0 0 1
268 1 35.550173177902174 14.493028257368328 19.156681334812074 0 0 -1
1070 1 37.51272192217872 15.230836469143282 10.919661437427893 0 1 0
283 1 28.142980171142206 16.10577797996399 18.266377516594726 0 0 -1
184 1 29.112018430725584 18.55478263413211 17.76134096986196 0 0 0
189 1 30.580245364015365 20.638748537009196 19.617730195048786 0 0 0
245 1 32.551482468290054 18.422061824745818 19.635595718847046 0 0 0
139 1 34.69773851750739 19.649339021497834 0.19453924372832176 0 0 0
1007 1 37.50239651843968 4.827936555430078 8.101906763477068 0 1 0
248 1 25.2936347339182 20.310325740983384 18.30861007020849 0 0 0
292 1 27.51861494827061 20.080362019382296 20.019293478029127 0 0 0
365 1 38.73850159948813 20.965585461080558 22.145551862409967 0 0 -1
56 1 38.88090143668742 3.1253853830806415 0.8568957350426772 0 1 0
403 1 36.03376356583794 21.477954087478132 22.473558333493134 0 0 -1
953 1 37.577364626111525 21.763403088501914 18.421390588673507 0 0 0
305 1 25.57251946429539 0.5489689601242288 21.75945908206534 0 1 0
255 1 22.5332866119225 3.0694242479917637 0.2452740206700682 0 0 0
263 1 29.95468936033578 0.3452862515418162 22.87565171120389 0 0 -1
306 1 25.291641954584666 2.7233974888028887 23.502405001969972 0 0 0
313 1 31.648316550623694 2.8582147486115064 23.59733539739803 0 0 -1
241 1 38.7331208156739 14.539586122658434 18.296286642414294 0 0 0
267 1 34.13799342881136 1.8587263733518924 22.87805365426293 0 0 -1
307 1 22.617490944031466 5.1366743777403 2.1279852426704164 0 0 0
262 1 24.90803638392815 5.6886629659096695 0.43012727507081067 0 1 1
315 1 23.395800325067633 6.504576614002386 21.944046195502427 0 0 0
308 1 28.301149266877477 5.310799044949548 23.616339182006403 0 1 -1
265 1 26.472170548150306 4.379627333622929 21.4723271665489 0 0 -1
125 1 30.594032294228906 4.666185486474976 21.996797428992856 0 0 0
242 1 35.90806407868493 5.923436114900922 1.0788441466760306 0 0 1
254 1 37.2604077239425 4.890569491759962 20.896579441126633 0 0 0
695 1 36.56133573713648 3.572408215311727 23.21158958877815 0 1 0
9 1 24.948737842745388 9.025116033570907 22.61617827018016 0 0 -1
311 1 27.150731446375634 7.764447533156326 0.39649123453534196 0 0 1
277 1 29.796260580756165 9.336059439736415 20.43508054954705 0 0 0
279 1 31.815578124274364 7.308660983766201 21.10412993404855 0 0 -1
147 1 35.95137630858974 8.446555269624579 23.46997963296243 0 0 -1
211 1 38.17561305384876 7.234899981224221 22.424411900045037 0 0 -1
237 1 31.830158560637475 10.767969408785305 22.612200476094873 0 0 0
102 1 33.24581363894453 8.409287996118316 23.009892212974798 0 1 0
101 1 34.0065246461208 12.460449560141663 20.755283234583693 0 0 0
26 1 36.44903763458838 11.642660491486662 22.884407086740783 0 0 0
149 1 29.65033259163853 22.445270099123345 9.736783178102282 0 0 0
275 1 25.850891475011238 13.91090605493052 21.290455967959627 0 0 1
293 1 27.31029924516691 17.17597020619867 23.42453547893945 0 0 0
235 1 28.42762714606297 14.701327143515089 22.546568258642303 0 0 0
286 1 33.30618442252099 14.732250983256238 22.58803355703557 0 0 -1
287 1 34.77486741653371 17.430865058108168 21.912128595206813 0 0 -1
35 1 37.0091312976812 15.530054309446088 22.500763004731713 0 0 0
846 1 35.1608312351132 1.1741981791943326 19.980180513615252 0 1 -1
1049 1 38.51562045329708 3.3775536225438985 10.147146005815703 0 0 0
1256 1 35.047931025085994 21.115581370100912 2.6986205234892675 0 0 0
256 1 23.8545946437945 0.7439972361897582 19.598641182014838 0 0 0
992 1 39.125111235236254 16.695776913089627 3.1679252356390357 0 0 0
1046 1 39.15733319609402 7.141392181216268 16.489521092425413 0 0 0
792 1 38.27865533224836 0.3433833952055035 9.937829534061565 0 1 0
304 1 39.3203200903965 20.431665230379185 4.330877448676755 0 0 0
1153 1 39.115416476088996 12.228156131336009 16.46283183118521 0 0 -1
526 1 25.143065520883344 22.818729435489214 12.017739258299699 0 0 1
138 1 39.19795946781333 15.92835883317756 13.009460546992345 0 0 0
196 1 27.241096981313408 22.804100340925697 20.319433044592966 0 0 0
624 1 31.779171328355098 22.89302402623851 7.331558237123786 0 0 1
264 1 28.130728165921084 0.019414056120197642 21.01809038742281 0 0 0
5 1 35.286932437270835 0.015109698153523254 0.8706634981112072 0 0 0
878 1 31.948328161610434 0.01534710436818898 18.935959652151773 0 1 0
335 1 24.779063213441713 26.395115001149353 1.0124139940819574 0 0 1
199 1 24.72169794549981 23.418845768706223 2.327517458773183 0 0 0
349 1 38.237199073837445 39.03687583040677 7.86098189498348 0 0 0
619 1 29.176006192637765 26.31716096761967 1.9920925995600334 0 0 0
94 1 32.1361530424437 23.984602443448292 2.968079152076999 0 0 0
632 1 35.03943245543282 24.658678442855788 3.36442232955921 0 0 1
98 1 32.87231508787418 23.88317816167691 12.264896181603788 0 0 0
332 1 23.709125184448645 31.4262144400193 5.191690379709338 0 0 1
631 1 25.26543518139414 28.82919932991648 1.7077166248670812 0 0 1
577 1 28.68926014238983 30.20688082464195 4.499832245406634 0 0 1
585 1 30.102429537467234 28.832260526122813 2.36154966488927 0 0 1
327 1 32.38613929998648 27.977695388871823 3.781243196673057 0 0 1
1316 1 37.62794997607881 27.132123041927567 2.9137147979761275 0 0 0
564 1 23.808646148996466 30.886383375737417 2.362712332166082 0 0 0
334 1 27.824656521647356 32.457133340665045 3.1430457321257226 0 0 0
530 1 25.850195822187988 32.49538948512998 1.485863194076272 0 0 1
347 1 31.035967563630113 32.77704690051676 3.6505448301091405 0 0 1
590 1 30.316713940301728 32.93505351982254 1.1337591516418406 0 0 1
389 1 33.139304809292014 29.46790029946754 0.9618451362002929 0 0 0
549 1 20.438048699042866 34.579486701738055 1.6542282299012303 0 0 1
337 1 24.360505303884427 35.00729942172413 2.202892791265254 0 0 1
384 1 26.557729277508933 36.52243647688871 2.356318516943306 0 0 1
393 1 35.46893480943821 31.327533695624606 3.5869423391101773 0 0 0
340 1 34.08783993611076 32.722369450587706 1.1227792078664365 0 0 0
604 1 23.1358169973433 38.54684579335219 2.44529703227476 0 0 1
438 1 25.893282898302235 39.167123322055495 1.305742976610775 0 0 1
343 1 26.86566163705526 38.92961966575387 4.482300086676797 0 0 0
411 1 32.42601907269709 39.30673357481612 3.7297043659675344 0 0 0
395 1 33.45175310513108 34.386563980474676 3.3699208198726396 0 0 1
1263 1 36.010439672350486 37.285849639724404 1.549294367775279 0 0 1
1333 1 38.273989615138234 24.826341352579483 15.82970653016085 0 0 0
360 1 23.77681719128088 42.75392635590581 3.3834203770058915 0 0 0
431 1 23.014733717312666 41.27378043089198 1.2236521824073943 0 0 0
625 1 26.302069100302422 41.56599523677287 2.798059702132526 0 0 0
405 1 30.205279193386062 41.641919268134885 0.8888724261012976 0 0 0
468 1 32.9021776889555 41.13572884624046 1.6695823060745472 0 0 1
358 1 37.44526788635858 39.88880224868337 1.470326710885343 0 0 1
458 1 21.82349183155179 45.03021740540628 23.48911485492547 0 0 0
573 1 37.543080925877554 45.487286247030106 13.671210273784974 0 0 0
645 1 28.631318562671808 45.201987611216204 1.198491770396478 0 0 0
369 1 31.319522304844885 44.597464312367215 0.28210949082850045 0 0 1
576 1 37.80820985941803 28.916018765556537 0.5325029371238257 0 0 0
1279 1 38.26075380297814 30.29209693091147 3.6444285134261154 0 0 0
599 1 34.47830504922388 44.59993374888313 23.76683904297647 0 0 0
407 1 33.55888645763102 43.64698130989829 2.571405506936309 0 0 0
415 1 37.13592049939053 43.880214517767044 0.38732987556454923 0 0 0
616 1 36.1978259688394 43.61278961014483 3.582963586239818 0 0 1
317 1 24.58895392278923 26.103616346578576 3.927409632011998 0 0 1
318 1 25.860320997648987 24.116915035283743 5.631995285155146 0 0 0
621 1 29.41627392693211 24.193225070744624 3.9744515693326576 0 0 0
402 1 24.12603569505113 45.724890572931606 6.9719911050648165 0 0 0
543 1 36.42161051988458 23.23399741379105 0.8759438659315694 0 0 1
368 1 26.25756863244599 28.329984481339523 4.402764937259871 0 0 1
376 1 25.53965663557463 29.784441336786088 6.611107580218023 0 0 1
623 1 30.52729903609425 26.96606942596655 5.823429904375088 0 0 1
1354 1 32.66530796933146 25.208648009353027 5.749882918480799 0 0 0
583 1 37.842635911570504 28.696891306189965 5.5915941245860905 0 0 0
633 1 37.843183875521035 25.608137951710734 5.901349043593549 0 0 0
630 1 27.484074143564946 33.5315240096767 5.90552066308582 0 0 0
319 1 24.645481830415417 33.72986065725433 6.2826612140820925 0 0 0
378 1 27.71617452407019 31.330203216019683 7.538593823194519 0 0 0
436 1 30.289516558014423 30.277388456593822 7.524772822867275 0 0 0
387 1 35.139085922343114 26.57148398390303 6.0372659423812856 0 0 0
565 1 31.871027232748734 30.550044150842982 5.035870320919306 0 0 0
493 1 35.531353049144684 30.76820521192764 8.0768711400262 0 0 1
618 1 22.308391451562727 33.87285680586367 3.7560754511808097 0 0 1
390 1 28.50116993395141 36.551715810782596 4.627198344326638 0 0 0
386 1 27.910521476340055 36.33269475947861 7.393300873454433 0 0 0
339 1 30.151214843118062 34.157654887681254 5.833019922139591 0 0 0
385 1 34.9701821810015 29.29422365824017 5.64086002609713 0 0 0
1381 1 36.10879495425792 33.238249045700705 6.830325368274007 0 0 0
1335 1 36.489629755253596 33.72961649290008 4.175359407533527 0 0 0
432 1 22.886884761859616 36.063946895032736 5.763992547569364 0 0 1
326 1 24.02367249601107 38.65934112094594 5.107516464856294 0 0 1
333 1 30.53058379419333 38.364252366237814 5.548920022895838 0 0 2
394 1 26.039147984075843 38.18152592654113 7.403926883630205 0 0 0
388 1 32.28558410129392 36.249383498390266 5.55115703929221 0 0 1
350 1 35.98398019469645 36.59173197566877 4.231363145142396 0 0 1
622 1 24.73890693942918 23.029945388187286 19.075552389195106 0 0 0
353 1 23.34812384638299 41.32293776177078 5.952318574290687 0 0 0
455 1 24.787936859499396 42.91402601223655 7.313259898507445 0 0 1
399 1 29.69413442161875 41.73505291418255 3.934370478075952 0 0 0
364 1 32.18385080232431 42.510336934142764 5.121379669113441 0 0 0
706 1 35.70590431708592 41.1255851288807 6.122562038260951 0 0 0
634 1 34.304779447634886 38.64471144162421 5.7787550374696925 0 0 0
414 1 32.16133797413409 42.13915435273594 7.88584876606108 0 0 0
359 1 37.55712561645067 40.83215945076403 4.145439453274149 0 0 0
602 1 37.8800368633817 42.971069960639106 20.462438258957818 0 0 -1
355 1 27.97913180568642 43.84885088205865 3.5891418507269064 0 0 0
413 1 28.785031541563345 45.034181310500394 6.240809421608135 0 0 1
442 1 31.44942668084379 45.23250363700776 5.293542017295155 0 0 1
382 1 23.44161455853146 26.322091357140522 9.261533280574456 0 0 0
46 1 25.772904910418912 24.027170005569076 8.54643728740875 0 0 0
328 1 27.884690830963578 26.2758403539069 5.534504122317645 0 0 0
371 1 27.957525047021175 26.45119564672563 8.613607041339455 0 0 -1
200 1 30.793626598877566 23.5673713487315 22.514003006388897 0 0 -1
131 1 35.144068828806034 26.63566680976252 8.972045843718593 0 0 0
150 1 34.162496660454394 24.012270708937965 9.107422472099527 0 0 0
1294 1 39.302954850427284 43.705913764546956 2.734072306160156 0 0 1
427 1 21.852988053654947 28.48517181929302 9.922041362178842 0 0 0
373 1 25.936530263762535 28.138098915548206 9.035196689022495 0 0 0
224 1 32.98676142912413 27.936913422757158 9.825749148011498 0 0 0
1305 1 37.69160408502747 27.111294441790086 10.216668137099525 0 0 0
620 1 23.585125281497255 30.942943840849296 8.545979683744386 0 0 1
374 1 25.408129353832926 30.538169215134875 10.942654695981235 0 0 1
441 1 27.567546397362648 32.106073319721716 10.212681970566868 0 0 0
437 1 30.555679163131767 27.65571473245521 8.508270555011096 0 0 0
329 1 33.0467517325572 30.66301994992147 9.527747410356293 0 0 1
535 1 37.796295386310724 29.96481626420401 9.572507665054815 0 0 0
553 1 36.656133655894365 30.944193837398878 11.712925284184962 0 0 0
433 1 22.143059795848412 35.58395266205552 8.528842553572632 0 0 1
536 1 21.151758227440986 36.79436484800332 11.06602978427207 0 0 0
383 1 23.979746362397137 33.71118783954461 9.2200625609223 0 0 0
537 1 23.530383637218375 33.49292057113091 11.940476150718574 0 0 0
435 1 26.592740096236483 34.63813957705357 9.396969110668643 0 0 0
1336 1 30.258243859090655 36.637614337730966 8.381062108551149 0 0 0
560 1 30.536959939806163 34.86101063303629 10.541731006166264 0 0 0
418 1 31.29156777454018 33.07804590564189 8.297359371248698 0 0 0
1382 1 33.66715138497283 34.42448916020761 7.350992616912048 0 0 0
452 1 37.39453980788533 33.92325128794534 11.803575661961826 0 0 0
448 1 23.71265426751184 37.8046754327386 8.681276502125547 0 0 0
404 1 30.16578385979946 39.93294230081328 8.224273599515687 0 0 0
396 1 32.841074249926194 38.23365623924659 8.34855282319168 0 0 0
1451 1 34.18777413539581 36.362505775514876 9.415612411183899 0 0 0
1472 1 33.664264737473836 40.4984679752479 9.853340410474761 0 0 0
1306 1 36.897407811134784 37.28180345864695 9.760137640767223 0 0 -1
409 1 21.813872940512024 40.35665051452761 9.500019852580825 0 0 0
381 1 22.926652980877755 43.19442929373227 9.428746107073433 0 0 0
463 1 28.302141340435348 40.69458138345673 6.128823090279332 0 0 0
391 1 27.286559412953746 41.54874855678721 8.725237173650893 0 0 1
453 1 31.12685089148276 44.0740241998852 9.425503113660508 0 0 0
638 1 25.558553965699094 45.158143689239985 4.399840061277104 0 0 0
461 1 37.41021436491769 41.66268860138268 7.934955067728041 0 0 1
514 1 21.703842253449068 45.171006846485795 8.057497996392216 0 0 0
338 1 28.399818830781285 44.14792455954346 9.078413581442806 0 0 1
348 1 38.85483409904274 33.826036412467296 2.6205323057796512 0 0 1
1523 1 37.29419665392573 29.009785615694867 20.472078718554716 0 0 0
40 1 31.98684591923228 25.194441727585264 0.7299189890477911 0 0 0
397 1 38.30082133838918 26.959031721010778 22.528408960245258 0 0 -1
188 1 37.05318986699665 23.633518450323606 10.599444995079065 0 0 0
408 1 22.687619051922677 24.60440651771581 11.500397999470856 0 0 0
91 1 26.16829602244422 26.06252414244846 13.00974794617959 0 0 0
375 1 27.327240259449187 24.374860560554133 11.08678738704696 0 0 0
88 1 31.39853139568911 24.87914102454292 9.80486794161482 0 0 0
95 1 30.40956168256947 26.155601264400637 12.561730179815035 0 0 0