LAMMPS data file via write_data, version 7 Aug 2019, timestep = 200000

4089 atoms
1 atom types

2.4928715943114810e-01 5.1170712840571227e+01 xlo xhi
2.4928715943114810e-01 5.1170712840571227e+01 ylo yhi
2.4928715943114810e-01 5.1170712840571227e+01 zlo zhi

Masses

1 18.15

Atoms # atomic

439 1 3.3163035601252178e+00 2.9131674582532860e+00 9.1012770766730677e-01 0 0 0
2123 1 4.2023619272203430e+00 1.6910501293172002e+00 3.2904802925266625e+00 1 0 0
11 1 8.2970812244844936e+00 2.8187821372456159e+00 1.7109277851358442e+00 0 0 0
1684 1 1.1287356087124495e+01 3.0916791315303525e+00 2.1364265381022696e+00 0 1 1
3286 1 1.5089808730125180e+01 1.2652659243984312e+00 2.5978247136491959e+00 0 1 0
2855 1 1.3480344911476996e+01 2.2935225430003263e+00 7.2437531196036331e-01 1 0 1
529 1 1.8799687844864874e+01 3.0913136612142278e+00 2.2597676708118115e+00 0 0 1
326 1 1.8280261445827346e+01 4.1515091014184652e-01 2.5994499626181056e+00 0 0 1
2867 1 2.0937603011397197e+01 3.0546541886141493e-01 1.7338200955936072e+00 0 0 1
2941 1 2.3181896960128249e+01 1.3176248742670986e+00 2.9734995328719265e+00 0 0 1
3421 1 2.5017268737365598e+01 3.4565395141648519e-01 3.6663271762517891e-01 0 1 0
189 1 5.4933522164236015e-01 4.8453610250275094e+00 1.9862992318693538e+00 0 0 0
2870 1 2.8551313544041315e+00 5.6904836873328080e+00 4.7526206228676171e-01 1 0 1
2209 1 5.7342147423413623e+00 6.0794168070158117e+00 3.2672488770297385e+00 1 0 0
2658 1 7.0657852709347146e+00 5.2696855983301152e+00 7.2412703938753209e-01 1 0 1
2600 1 1.0894272783543947e+01 5.2435858196284313e+00 6.8588380251397352e-01 1 0 1
83 1 1.3184363859557156e+01 6.5183206655507453e+00 1.2229635858887282e+00 0 0 0
247 1 1.6525382581155512e+01 3.9173084294826070e+00 2.5318922143573479e+00 0 0 0
1719 1 2.2158359877153245e+01 5.5772796324856149e+00 2.2858172863302939e+00 0 1 1
1999 1 2.4831120941563096e+00 9.5469996593190380e+00 1.5877741527431841e+00 0 0 1
710 1 3.6170323038853058e-01 9.1206147172469283e+00 3.1370623758763538e+00 0 1 1
74 1 4.3648194734616483e+00 7.6018784403795685e+00 1.5115696071337803e+00 0 0 0
69 1 9.0404829561696030e+00 7.2583575324892635e+00 1.0357190456225345e+00 0 0 0
612 1 1.2592226614599474e+01 8.5696483763868336e+00 3.0437364202865238e+00 0 0 0
3509 1 1.7578208212403776e+01 7.3034885918795132e+00 2.3163860274411623e+00 1 1 1
1992 1 2.0168802919032945e+01 7.0926023508525322e+00 3.5561879328051247e+00 0 1 1
2900 1 2.4791403116853346e+01 8.2214476476175715e+00 2.8996940559851212e+00 0 0 1
598 1 5.4060299715291373e+00 1.0842113374526132e+01 2.3054861803578102e+00 0 0 1
726 1 8.5675867960462515e+00 1.0556455367791166e+01 3.2355158942047559e+00 0 0 1
3059 1 9.2902779207226924e+00 1.1316570544338967e+01 6.8837248277399232e-01 0 0 0
1928 1 1.1609294366938149e+01 1.2607673631658223e+01 1.4610727066988776e+00 0 1 1
2048 1 1.4179723125104546e+01 1.1630044028084376e+01 2.6500107927680483e-01 0 0 0
150 1 1.6330366869177457e+01 1.2005613674940534e+01 2.6125655966406236e+00 0 0 0
789 1 1.8127478322243039e+01 1.0077410378423782e+01 1.3174990063258947e+00 0 0 1
97 1 2.0483596018207123e+01 1.0163459988979104e+01 2.6023534762534073e+00 0 0 0
1301 1 2.0639280133959772e+01 1.2844058536335014e+01 3.5027173028912948e+00 0 0 0
2312 1 1.9680776965248969e+00 1.6081657254843549e+01 1.5960011685692788e+00 0 0 0
1828 1 2.9299701936913030e+00 1.3385879219363050e+01 2.2962710961657908e+00 0 0 1
177 1 3.1974664565271016e-01 1.3525502106891787e+01 3.4069336836577784e+00 0 0 0
1921 1 4.7491047785249609e+00 1.5345878580512299e+01 3.2287741320468535e+00 0 0 1
1938 1 7.2208181204367827e+00 1.6016374415159717e+01 1.9949771260951008e+00 0 0 1
302 1 1.1983295552838159e+01 1.5180631690562496e+01 1.3269428227886662e+00 0 0 1
2311 1 1.6101394920175842e+01 1.4736109807047763e+01 2.6825558208331741e+00 0 0 0
2903 1 1.4488702727296106e+01 1.5387714029666354e+01 8.0641590711922295e-01 0 0 1
3070 1 1.8440907413536479e+01 1.5206745447362895e+01 1.4760571270566845e+00 0 0 0
3640 1 2.0786540857492373e+01 1.5464851065663989e+01 2.9498511689547935e+00 0 0 0
805 1 2.1967888470729104e+01 1.3686285401712011e+01 4.3716705182065607e-01 0 0 1
1001 1 2.4288690297922862e+01 1.4195788743072855e+01 1.7506655553674360e+00 0 0 1
1114 1 3.0170149374744808e+00 1.8149741476187458e+01 2.7980642763287539e-01 0 0 0
967 1 6.8522225707960276e+00 1.8944921574303127e+01 1.6276177422986486e+00 0 0 1
2927 1 1.1237009302640004e+01 1.9080482405633372e+01 2.0789880275070640e+00 1 0 1
2721 1 1.1323267705861896e+01 1.6839752671193356e+01 3.5078858390242211e+00 1 0 0
936 1 1.4704844467036006e+01 1.7917746397961182e+01 3.6296466965290963e-01 0 0 1
2756 1 1.8050327285264210e+01 1.8021138139120357e+01 5.1881979403574374e-01 0 0 1
3377 1 2.1772558380854530e+01 1.8148076679426350e+01 1.9160080045696242e+00 1 0 0
340 1 2.5598760267596809e+01 1.6794142428652144e+01 1.1791745637109643e+00 0 0 0
2160 1 1.0700743337194036e+00 2.2125395067600756e+01 9.4968277447130012e-01 1 0 0
3849 1 4.3940275082760287e+00 1.9415168297156828e+01 2.1124702351310436e+00 1 1 1
930 1 3.9014616599939940e+00 2.1963669110942490e+01 1.5146679503460296e+00 0 0 1
170 1 8.8402765134612586e+00 2.0420679475905558e+01 2.6431988695694417e+00 1 0 0
107 1 1.4247521960088184e+01 2.2506708036558379e+01 5.9938404885483176e-01 0 0 0
592 1 1.3129546949042062e+01 2.0257830220642109e+01 3.3825817056845633e+00 0 0 0
842 1 1.5423770698742157e+01 1.9826555346837925e+01 1.7396950558050310e+00 0 0 1
2098 1 1.7874039039956219e+01 2.2286520340855830e+01 3.0912869191592018e+00 0 0 0
769 1 1.7871766365285175e+01 1.9542132628995823e+01 2.8585463469388199e+00 -1 0 1
1880 1 2.0758995756220038e+01 2.0780288619707957e+01 1.4817885469163268e+00 0 0 1
3685 1 2.3089389237502335e+01 2.1694395892788510e+01 9.6828363522313010e-01 0 0 0
2067 1 2.4784388081562771e+01 2.2354910844653638e+01 2.8327895397286613e+00 0 0 0
2769 1 1.3393477647837764e+00 2.5241520759441944e+01 1.2882774493752027e+00 1 0 1
3138 1 8.2621416821583491e+00 2.2895132927042340e+01 1.5484995678796156e+00 1 0 1
3207 1 1.0511952941884553e+01 2.4184921285272292e+01 1.6283172530830439e+00 0 0 0
829 1 1.2524454116314098e+01 2.2829493876357315e+01 2.5988285908710833e+00 0 0 1
1337 1 1.7160803679590146e+01 2.3263984042573203e+01 1.0149937886175568e+00 0 0 0
2216 1 2.1074274677723142e+01 2.4872952249508717e+01 2.9687389342983344e+00 0 0 0
110 1 1.9858025436577783e+01 2.4577836509109581e+01 4.4378566093610494e-01 0 0 0
804 1 4.4102927793427913e+00 3.8336704467377913e-01 6.5156901390155992e+00 0 0 1
2073 1 6.8487476960294771e+00 1.8578835809166039e+00 3.9020182741968563e+00 1 0 0
913 1 1.3236264299799517e+01 8.1702647965441588e-01 4.2492056729304633e+00 0 0 1
1708 1 1.8208514237322284e+01 3.8231132206442758e-01 5.1151194736637313e+00 0 1 1
1598 1 2.1224925889254976e+01 3.1000443167654343e+00 3.6845412688280526e+00 0 1 1
48 1 2.0755230230487260e+01 2.3443457205417646e+00 6.3473853369451598e+00 0 0 0
3657 1 2.5254497408127303e+01 3.4310141954662785e+00 3.8881478748250817e+00 0 1 0
2036 1 7.9713919589826765e-01 4.5361234241178465e+00 4.6794672087344686e+00 1 0 0
210 1 3.7998256657034055e+00 4.2720752424398256e+00 4.3403755508031363e+00 0 0 0
152 1 3.6427337571655074e+00 6.3457596062859434e+00 6.7070358884451320e+00 0 0 0
2353 1 7.0969111637232007e+00 4.3545919653625909e+00 5.0935935577689495e+00 1 0 0
1410 1 9.7291650209071960e+00 5.1764228922712929e+00 3.9756202356046066e+00 0 0 1
3948 1 1.0425014506268983e+01 5.3297501713880626e+00 6.4458200394121858e+00 0 1 1
1846 1 1.2986781289413779e+01 3.9363892703099674e+00 4.7981424115373450e+00 0 0 1
436 1 1.5222326215971632e+01 5.3143530790240474e+00 4.5572522063225751e+00 0 0 1
2910 1 1.7299228997971603e+01 5.3191281810603046e+00 6.4674224688061894e+00 0 0 1
2552 1 1.9874684594619676e+01 5.1334539007213653e+00 5.8027364429789570e+00 0 0 0
881 1 2.4152871305944949e+01 5.9717382066367426e+00 4.4603523750298013e+00 0 0 1
2749 1 2.7749948050755097e-01 7.4276775743506906e+00 5.3860888865063110e+00 1 0 1
3017 1 3.4764939563994575e+00 8.4228574811906398e+00 5.2950419633569261e+00 1 0 1
2221 1 5.8986478479655275e+00 8.8177331318651415e+00 4.2737138077056693e+00 1 0 0
359 1 9.5730642012775693e+00 7.9997654316902773e+00 3.7833939555378056e+00 0 0 1
1270 1 7.4880407115902106e+00 8.8930740148821954e+00 6.6807499754207820e+00 0 1 0
1972 1 1.2086783107143615e+01 9.2461184212015279e+00 6.1946340582405215e+00 0 0 1
964 1 1.5423604843576015e+01 7.6544369727930803e+00 3.9494643416401143e+00 0 0 1
92 1 1.5225413364644623e+01 9.6332542154448131e+00 5.9252118821529205e+00 0 0 0
95 1 2.1260846577072009e+01 9.1367966953605322e+00 5.1615507334370898e+00 0 0 0
3144 1 1.9406008483336276e+01 9.6540192797741078e+00 6.9862525790405652e+00 0 1 0
3401 1 1.2325486050615166e+00 1.1224670788115118e+01 6.8066939482945594e+00 1 1 0
935 1 3.8547509615004190e+00 1.0729302790906655e+01 6.3887870664703108e+00 0 0 1
1728 1 4.8317281414198492e+00 1.2556435121087629e+01 5.0931894798395021e+00 0 0 1
49 1 7.6438352124776019e+00 1.1898210842815082e+01 5.5302329753267463e+00 0 0 0
486 1 1.1550598603930547e+01 1.1202962823285599e+01 3.8846762756641326e+00 0 0 0
1054 1 1.1593242384211047e+01 1.2843503396722745e+01 6.6535854415145774e+00 0 0 0
1629 1 1.4535440353737515e+01 1.2087616000991853e+01 4.8720161238136219e+00 0 1 1
67 1 1.7931748042275277e+01 1.0213835627977739e+01 4.6042892130413229e+00 0 0 0
2759 1 2.4002746667983033e+01 1.0392123176272692e+01 4.3752501659218135e+00 0 0 1
3445 1 9.1790394750922992e+00 1.3973175216885453e+01 6.3157578290571674e+00 0 0 0
3741 1 8.8537251164329938e+00 1.5940084956473264e+01 4.3304104565094033e+00 1 1 1
1278 1 1.6037877435667738e+01 1.3872350896271957e+01 6.3593847869142852e+00 0 0 0
952 1 1.9180685221372126e+01 1.5887131249749240e+01 5.4764752395141283e+00 0 0 1
1426 1 1.8601087911189079e+01 1.3356409002541904e+01 5.2636239312304864e+00 0 1 0
2176 1 2.3280750674781046e+01 1.3101977844695934e+01 4.2379019530703008e+00 0 0 0
1187 1 2.5276803996446510e+01 1.6080301422345869e+01 4.2245130357449261e+00 0 0 0
384 1 2.3518029221296569e+01 1.4621101116219826e+01 6.2630288492905297e+00 0 0 0
222 1 1.2181971967225740e+00 1.7467347363537240e+01 5.6508608217665000e+00 0 0 0
478 1 3.7747818639320800e+00 1.6612926857028352e+01 5.5552575739967587e+00 0 0 1
3173 1 4.5316490022289395e+00 1.9183508931880983e+01 4.8592382633788400e+00 1 0 0
1159 1 7.1720244085553126e+00 1.7800345848361257e+01 5.5391339635912837e+00 0 0 0
295 1 1.2900651863906289e+01 1.7195031538107891e+01 5.7050825489392398e+00 0 0 0
1362 1 1.5283846130687376e+01 1.6383957695738719e+01 4.8907821125875728e+00 0 1 0
191 1 1.7426083442494310e+01 1.8196850354641157e+01 5.3441934285514350e+00 0 0 0
1111 1 2.1753198297041219e+01 1.6828035855462179e+01 6.1605347661891834e+00 0 0 0
2753 1 2.3143819098909574e+01 1.8230667655847533e+01 4.4843629044321522e+00 0 0 1
2228 1 1.6804242213228966e+00 2.0269870652958719e+01 5.9387896239918865e+00 1 0 0
602 1 4.6106069549854061e+00 2.1317813974825931e+01 7.0268304636007350e+00 0 0 1
1299 1 6.7910485380690426e+00 2.2405633591874473e+01 6.1451968619400974e+00 0 0 0
76 1 8.4741031222080441e+00 2.0139743371957209e+01 5.3044176350648842e+00 0 0 0
822 1 1.2976317319474063e+01 1.9911646137881672e+01 6.1032570499143111e+00 0 0 1
1739 1 1.4159230124385306e+01 2.2394247838262292e+01 6.6032931348359147e+00 0 0 1
1027 1 2.0545868136222854e+01 2.2141248560511400e+01 3.7120326021978087e+00 0 0 0
280 1 2.2251271210168213e+01 2.1371042509030701e+01 5.6164691022820747e+00 0 0 0
1460 1 2.5172775875424573e+01 2.0098802887362613e+01 4.5111494493168633e+00 0 0 0
2245 1 2.5638344509728462e+01 2.1877082184637718e+01 6.5072245363576791e+00 0 0 0
2198 1 1.0480082920634219e+00 2.4172876728913000e+01 6.1305169248353364e+00 1 0 0
2898 1 4.0735296868258661e+00 2.3697293542667666e+01 3.7120306176319979e+00 1 0 1
1108 1 3.6633304070924173e+00 2.3853814705102671e+01 6.5880004308104940e+00 0 0 0
1874 1 6.9397752309719234e+00 2.4036982613886366e+01 3.7760325353947062e+00 0 0 1
1139 1 1.3056541788301830e+01 2.4238277062451775e+01 4.5866916960599857e+00 0 0 0
1540 1 1.8525938432800125e+01 2.5078534541410484e+01 6.6109920908398827e+00 0 0 0
1180 1 1.6589824760801967e+01 2.3347962472036365e+01 5.1120415314080487e+00 -1 0 0
1661 1 2.1402149926486647e+01 2.5008647033122674e+01 6.8050314533874259e+00 0 0 1
3278 1 2.3577740577137558e+01 2.4126173743830993e+01 5.2291256952910716e+00 0 0 0
183 1 8.9111853952592590e-01 2.0239212184800550e+00 9.2161810665903943e+00 0 0 0
862 1 3.8432186589688251e+00 3.3046824927815375e+00 7.4199018822600760e+00 1 0 1
121 1 6.9712750034011153e+00 2.3705216753399760e+00 7.7678351450496628e+00 0 0 0
3742 1 1.0494228590444502e+01 1.3111142240751026e+00 8.8934016731631598e+00 0 1 1
187 1 1.2934711029384079e+01 7.3938916703407709e-01 8.0178428074339614e+00 0 0 0
3226 1 1.3969015144834676e+01 3.0920666340469176e+00 7.4326341162462466e+00 1 0 0
4063 1 1.7715427549118619e+01 8.8249996265848141e-01 7.8158368249445003e+00 1 0 1
1198 1 2.0320480086773035e+01 7.6636492360397812e-01 8.6824144675718689e+00 0 0 0
1503 1 2.4689106943925943e+01 7.5036649291552338e-01 7.5686213164733873e+00 0 1 0
815 1 2.3422814101094762e+01 3.1026118290923486e+00 7.6330088763020507e+00 0 0 1
249 1 1.7248540153902501e+00 6.0234173320693127e+00 8.4876918809873469e+00 0 0 0
2520 1 4.9649171451087080e+00 3.9858980599760740e+00 1.0191385736753825e+01 1 0 0
466 1 6.0587311445302854e+00 6.5494041997996710e+00 7.3969900765178265e+00 0 0 0
209 1 9.6134659304392116e+00 3.9916705401809502e+00 8.5059899365901153e+00 0 0 0
1437 1 7.6308436026882358e+00 5.9736093886794448e+00 1.0060360952032783e+01 0 1 0
1722 1 1.2491609462916598e+01 4.8859536726089177e+00 9.2732904910791660e+00 0 1 1
2743 1 1.6589003301054412e+01 3.4404260089745011e+00 8.2012132664331236e+00 1 0 1
226 1 1.9288222543671299e+01 6.4849290011449954e+00 1.0186706383238294e+01 0 0 0
2595 1 2.1581494370108086e+01 5.6671220401759923e+00 8.3153536638922247e+00 0 0 0
2430 1 2.5109059444464297e+01 3.5822317099261429e+00 1.0233049041196971e+01 0 0 0
2366 1 4.3987457264378116e-01 8.8323515297408548e+00 8.3199004989207861e+00 1 0 0
1742 1 1.0339594703724014e+01 7.7698208950644547e+00 7.2213171212293270e+00 0 1 1
589 1 1.1435499224060237e+01 7.6183616665979512e+00 9.5875659767174248e+00 0 1 0
910 1 1.7224246573182580e+01 8.0660353274309511e+00 7.7780337911942690e+00 0 0 1
3223 1 1.6710348385952379e+01 7.5637099476490937e+00 1.0327324875320267e+01 0 1 0
2449 1 2.4242067200631194e+01 9.7202956703429297e+00 7.0723600395814525e+00 0 0 0
3321 1 2.4301630754424938e+01 7.0208532451688299e+00 7.2881590814477342e+00 0 1 0
2543 1 1.1312693385862203e+00 1.2907586786404238e+01 9.0723651536601082e+00 1 0 0
303 1 5.6904567677426536e+00 1.0307353764427258e+01 8.3790120779787678e+00 0 0 0
2168 1 7.4141906342791213e+00 1.2113594455715891e+01 9.3666421064513354e+00 0 0 0
924 1 1.1494670657159102e+01 1.0843892789759201e+01 8.6959648830400837e+00 0 0 1
2117 1 1.4268290633320799e+01 1.0143468476898970e+01 8.6733061292219009e+00 0 0 0
645 1 1.5669302882170586e+01 1.2108449071253011e+01 9.9586859510961574e+00 0 0 0
765 1 1.9208276903198414e+01 1.2906135150841802e+01 7.6273249251494581e+00 0 0 0
245 1 1.8306247422444947e+01 1.1887413904785207e+01 1.0151563268514744e+01 0 0 0
2594 1 2.2281388014462078e+01 1.0610154017313230e+01 8.1014628905207360e+00 0 0 0
2726 1 5.1060595948182428e+00 1.4653050665172753e+01 7.1699156738980303e+00 0 0 1
2396 1 3.8116040380968932e+00 1.4011982220201789e+01 9.2608973079061290e+00 1 0 0
3080 1 7.4751484570232520e+00 1.4640116712756218e+01 8.3164508549985872e+00 1 0 0
3420 1 1.2210751746977708e+01 1.5452916021597936e+01 7.7037465008189576e+00 0 0 0
337 1 1.4806288949147715e+01 1.4701659020644703e+01 8.8370603536054446e+00 0 0 0
740 1 2.0261803270825311e+01 1.4772885238657185e+01 9.3132783756732849e+00 0 0 0
174 1 2.2823896840500822e+01 1.3160968197172858e+01 8.7251008924565099e+00 0 0 0
483 1 6.9605141840043350e-01 1.6759118627310848e+01 8.2502765807046341e+00 0 0 0
2337 1 3.0634746078140456e+00 1.6482743124269525e+01 9.6825180073269834e+00 1 0 0
2745 1 5.3922835640219242e+00 1.8447662486629774e+01 9.6968885712115505e+00 1 0 1
2045 1 7.5520552435737462e+00 1.7475652037579433e+01 8.3797240643872666e+00 0 0 0
2044 1 9.6978306524814766e+00 1.8396451327326346e+01 9.4982309849647741e+00 1 0 0
1519 1 1.1301468611679759e+01 1.6163316153463690e+01 1.0083208925133793e+01 0 0 0
2798 1 1.5229685487217830e+01 1.8847818860286363e+01 9.5491705182080970e+00 1 0 1
242 1 1.8662539525917801e+01 1.7053843933336605e+01 8.5126831084530039e+00 0 0 0
1381 1 1.6363029776576937e+01 1.6540353957951037e+01 9.8230826968989966e+00 0 0 0
20 1 2.2594910347521491e+01 1.7613727141242130e+01 8.8524846219928843e+00 0 0 0
3294 1 2.4894075693695775e+01 1.9198268437803964e+01 8.8587044791791989e+00 1 0 0
2324 1 6.1481804921822047e-01 2.1168356747293938e+01 8.2790943899035874e+00 1 0 0
693 1 4.4695738982608599e+00 2.0965999314015086e+01 9.6609281858446145e+00 0 0 1
2840 1 1.0432560103810513e+01 2.0084731596651494e+01 7.1129750569837631e+00 0 0 1
3563 1 1.6198581451662243e+01 1.9760362800418321e+01 7.0425566345447477e+00 0 1 0
345 1 1.7567230343029319e+01 2.2193136736113122e+01 7.6259501003138217e+00 0 0 0
3260 1 2.0463257586592619e+01 2.1353680815036093e+01 7.7128304647056583e+00 0 0 0
2979 1 2.0344526638603639e+01 1.9374816424643168e+01 9.4746832453999232e+00 0 0 1
2072 1 2.4577721068091506e+01 2.1906036844627248e+01 8.9983471549719649e+00 1 0 0
655 1 8.0267300907908137e+00 2.3635140524258560e+01 8.2093056003930496e+00 0 0 0
1605 1 1.0594351264328115e+01 2.2613719281505212e+01 8.3755720720840614e+00 1 0 0
2060 1 1.2486854941489021e+01 2.4295509364227758e+01 8.1330327633562938e+00 0 0 0
338 1 1.4664147469487483e+01 2.4703496716643581e+01 9.9718589115616325e+00 0 0 1
1088 1 1.6918260806062275e+01 2.3233988056338443e+01 9.9496583436115422e+00 0 0 0
305 1 2.2183109512505329e+01 2.3338216988193931e+01 8.8119269187865523e+00 0 0 0
3803 1 1.1619198204151622e+00 3.3722344868186669e+00 1.1561047825731192e+01 1 1 0
3195 1 4.5005499395738333e+00 3.8648437351343834e-01 1.1063099570318467e+01 1 1 0
2409 1 3.8696911167862389e+00 2.3718032910889630e+00 1.2864607828471218e+01 1 1 0
1482 1 8.5098799679950385e+00 4.4241633340827136e-01 1.3180511434716857e+01 0 1 0
3580 1 7.2855826001045747e+00 1.1446695150189181e+00 1.0671081346884186e+01 1 1 0
100 1 1.1832378106969502e+01 2.9711839996905272e+00 1.1168991044039972e+01 0 0 0
1806 1 1.2692277218277720e+01 1.4457527448787053e+00 1.3484858237489183e+01 0 1 1
7 1 1.6065074941696054e+01 1.4324739658441654e+00 1.2019264490719246e+01 0 0 0
296 1 2.0785039458735273e+01 1.7073700854901370e+00 1.1117518180918077e+01 0 0 0
2334 1 2.3224709519704373e+01 1.6168542546996265e+00 1.2870682284340614e+01 0 0 0
1328 1 2.4148654805484906e+00 5.6977157466873871e+00 1.0868403427682640e+01 0 0 0
2129 1 7.3749191895720738e+00 3.5001429308215251e+00 1.1727077969263030e+01 1 0 0
1817 1 1.0508950125702754e+01 4.7693299425735143e+00 1.3055338720646422e+01 0 1 1
2349 1 1.4317456972537700e+01 5.7016843483987447e+00 1.1066432748795764e+01 1 0 0
1931 1 1.6756885777930908e+01 3.9085333616187690e+00 1.0844938534214100e+01 0 0 1
1245 1 1.9520744332656371e+01 4.2001457999766361e+00 1.1700716059589341e+01 0 0 0
476 1 2.2698006282121632e+01 4.3415289219550335e+00 1.0749283684615108e+01 0 0 0
735 1 1.0531578975972942e+00 7.2308665765438569e+00 1.2373167700105409e+01 0 0 1
138 1 1.5495988381172991e+00 9.2472973553272446e+00 1.1110684476766124e+01 0 0 0
1428 1 5.0733989081444451e+00 7.0008306620196983e+00 1.1307454655036972e+01 0 1 0
831 1 4.2397918073302865e+00 9.5669348742094993e+00 1.0578714803247477e+01 0 0 1
3381 1 9.7874941839787404e+00 7.3899531911957412e+00 1.1547294744893508e+01 1 0 0
412 1 9.7035440099634034e+00 9.7905374972231858e+00 1.2444369264094952e+01 0 0 0
3669 1 1.3779227297315218e+01 8.7521646951988359e+00 1.0977010228489615e+01 1 0 0
3547 1 1.4034365325952235e+01 9.6997390692736936e+00 1.3430643647873378e+01 1 1 0
892 1 1.8374011386790272e+01 9.4076083894070432e+00 1.1576944736705256e+01 0 0 1
2772 1 1.6988340811356746e+01 9.0983758987640115e+00 1.3804639268103180e+01 0 0 1
1764 1 2.0890114784841700e+01 8.2123191308473587e+00 1.2316990673455885e+01 0 0 1
21 1 2.3694012955220607e+01 6.7195098243817286e+00 1.2042538687486013e+01 0 0 0
3707 1 2.2886135403226636e+01 9.4006007899002331e+00 1.0743850920983297e+01 0 1 0
40 1 1.0931531901401628e+00 1.2417610144562433e+01 1.3166545636875375e+01 0 0 0
2130 1 4.9849966811880195e+00 1.1121531285327416e+01 1.2500462274579919e+01 1 0 0
403 1 7.2202451073853808e+00 1.0394606405850935e+01 1.3766964163817557e+01 0 0 0
715 1 9.9799499404985053e+00 1.1858223735537383e+01 1.0599275239321781e+01 0 0 1
3656 1 1.4128514651283336e+01 1.2343599173241351e+01 1.2301937528280524e+01 0 1 0
2341 1 1.8882023435973032e+01 1.2906501584651837e+01 1.2840256603675396e+01 0 0 0
3121 1 2.1843061571252072e+01 1.1254037749471902e+01 1.2969581851089403e+01 1 1 0
278 1 2.5614634858634055e+01 1.0208477662078051e+01 1.1386379594767808e+01 0 0 0
2758 1 5.7632139077876099e+00 1.3424854163040839e+01 1.1355363298392097e+01 1 0 1
1603 1 6.4435546840012003e+00 1.5452381021677926e+01 1.2978578630285611e+01 0 0 0
59 1 1.0293432615433909e+01 1.4410058060560747e+01 1.1829339632173550e+01 0 0 0
1142 1 1.2509224743673434e+01 1.4232680049174132e+01 1.3148249354264548e+01 0 0 0
461 1 1.6067930926039089e+01 1.3548159986860124e+01 1.3814348423449914e+01 0 0 0
2611 1 1.6463028764918267e+01 1.5979189304954515e+01 1.2881978108247429e+01 1 0 0
1785 1 1.9927402788557689e+01 1.5433349772110484e+01 1.2488191057027620e+01 0 0 1
264 1 2.4059753178633954e+01 1.2994680355602354e+01 1.3398339435307401e+01 0 0 0
2040 1 2.3943851719309311e+01 1.3875190531804741e+01 1.0996122009218885e+01 0 0 0
1268 1 1.7282173654343087e+00 1.6626234586343408e+01 1.2088354454942074e+01 0 0 0
261 1 1.8547821404853126e+00 1.9238443720237015e+01 1.2714120159264922e+01 0 0 0
2159 1 6.0851594576819368e+00 1.8032915505915181e+01 1.2081937964725087e+01 1 0 0
2024 1 1.3041031764285895e+01 1.8027628520647845e+01 1.0950926188690429e+01 0 0 1
1391 1 1.3770789644805681e+01 1.6633942462785420e+01 1.2899022615614406e+01 0 0 0
3927 1 2.2243582468723186e+01 1.6366543001610498e+01 1.1324257374127095e+01 0 0 1
1017 1 2.2959957423142676e+01 1.9034239739694929e+01 1.2946613086385456e+01 0 0 0
2704 1 1.8668781997775619e+00 2.1451784841888593e+01 1.0705102875742332e+01 1 0 0
299 1 4.5432424093503627e+00 1.9508354867526776e+01 1.3721862325627653e+01 0 0 0
3271 1 7.4604648006860446e+00 2.2132850202093255e+01 1.0757007111273671e+01 1 1 0
869 1 8.1836073170613464e+00 1.9585077089988978e+01 1.1660826623434808e+01 0 0 1
944 1 1.1688991494523814e+01 2.0242453577534739e+01 1.2344667088134937e+01 0 0 1
1006 1 1.0126017970878049e+01 2.2413153577442301e+01 1.1290248123655292e+01 0 0 1
362 1 1.4163104949557225e+01 2.1508714292804164e+01 1.2626977059763433e+01 0 0 0
241 1 1.8095083183292026e+01 2.0078081995036829e+01 1.3310284241083849e+01 0 0 0
2062 1 1.6383587752923340e+01 2.0691188826612201e+01 1.1156631821417749e+01 1 0 0
1546 1 2.0592146088173862e+01 2.0283852306992195e+01 1.2028123372518351e+01 0 1 0
2524 1 2.5426202778671062e+01 1.9345566674399898e+01 1.1945692896604998e+01 0 0 0
68 1 2.5371416159925921e+01 2.2158453511104476e+01 1.1742377869641375e+01 0 0 0
976 1 1.7366155148446025e+00 2.4048207379654581e+01 1.1395963435805603e+01 0 0 1
3737 1 4.0085922571942936e+00 2.5144152401529482e+01 1.2884014561093087e+01 1 0 1
1912 1 6.1696745304949054e+00 2.3487554469855194e+01 1.2555248760318358e+01 0 0 1
4086 1 8.2479436363691541e+00 2.5220807198030784e+01 1.2596326085970755e+01 0 0 0
1511 1 1.0985829514562671e+01 2.4741871004461466e+01 1.2240625636628460e+01 0 0 0
1240 1 1.3781708520868373e+01 2.4041676658309079e+01 1.2252396759294900e+01 0 0 0
312 1 1.8673966463952020e+01 2.4358252526570201e+01 1.1551636802972439e+01 0 0 0
1601 1 2.0693148046128300e+01 2.2764331230941657e+01 1.1045140289079942e+01 0 0 0
460 1 2.3296592068918336e+01 2.3846734426355049e+01 1.1960295525814830e+01 0 0 0
548 1 1.5782470959088299e+00 2.2319298474853619e+00 1.4379791041492380e+01 0 0 0
2226 1 5.8516828781131514e+00 3.3638860265348014e+00 1.6556134477753673e+01 1 0 0
238 1 6.4909710565653818e+00 9.9350330102941653e-01 1.7108438929154023e+01 0 0 0
3009 1 9.0241107686659792e+00 2.7095866109837945e+00 1.4490359526659201e+01 1 0 1
374 1 1.1246560847829704e+01 1.8411392685589099e+00 1.5603850176823476e+01 0 0 0
1342 1 1.4814298878931575e+01 2.7166672731917254e+00 1.3880754569234858e+01 0 1 0
918 1 1.6340615709912438e+01 2.1954189728110078e+00 1.6119468370026585e+01 0 0 1
276 1 1.8792919148273118e+01 3.2734742780914932e+00 1.6729279103410001e+01 0 0 0
649 1 2.0094424824633045e+01 8.3299246899841617e-01 1.6198452702657267e+01 0 0 1
3347 1 2.2616177772021203e+01 8.3078474334200125e-01 1.5331435605956235e+01 0 1 0
109 1 2.4006099702151065e+01 2.9593169497539678e+00 1.6324572938115786e+01 0 0 0
4059 1 1.5209467152682254e+00 3.8839080272135367e+00 1.6888620225124797e+01 1 0 0
1164 1 5.5662298656553890e+00 3.5968438992529115e+00 1.3969826601480426e+01 0 1 -1
2451 1 4.9294256107023626e+00 6.4323381441922018e+00 1.4002164652848698e+01 1 0 0
1597 1 8.6182390430241824e+00 4.3578142575741357e+00 1.7138195056628348e+01 0 0 0
231 1 1.2003956312303206e+01 5.4609715729864927e+00 1.5244902794236603e+01 0 0 0
2028 1 1.4265124142235472e+01 5.4245712055703024e+00 1.3874509551368767e+01 0 1 0
923 1 1.9154793805739530e+01 4.8473794168314921e+00 1.4322191983621238e+01 0 0 1
3073 1 1.6643483351584809e+01 6.5005226336029311e+00 1.4935147568448260e+01 0 0 0
1347 1 2.2486205131816938e+01 5.2395387574440422e+00 1.7161793656060759e+01 0 1 0
2514 1 2.5662492129052450e+00 7.5839047070256855e+00 1.4698938621256088e+01 1 0 0
2653 1 6.2819700129547273e-01 7.9341774714937428e+00 1.6915082196810808e+01 1 0 0
15 1 6.6152447851306597e+00 8.4114621029094430e+00 1.5355176694207474e+01 0 0 0
28 1 8.6207078532847685e+00 6.9510610110324276e+00 1.7088422508129565e+01 0 0 0
1861 1 1.1182333157108291e+01 7.5610872642048355e+00 1.6359412892491449e+01 0 1 1
2077 1 1.1549468466343995e+01 9.3816548628139760e+00 1.4268250199937793e+01 1 0 0
3477 1 1.9917336953453042e+01 8.7455139161856454e+00 1.6835485338216348e+01 0 1 0
2144 1 2.0931870885905596e+01 7.0242407173441652e+00 1.4956004824584912e+01 0 0 0
146 1 2.3790237814077365e+01 6.9316284080478665e+00 1.4766911448210100e+01 0 0 0
2338 1 2.4127725755651770e+01 9.6986809359652071e+00 1.5417044782794278e+01 0 0 0
3219 1 2.6774737179732293e+00 1.0696421846084025e+01 1.4483957976196566e+01 1 1 0
1975 1 3.7051466890194513e+00 1.1715704658991180e+01 1.6769049516385298e+01 0 0 0
292 1 7.6824021776789557e+00 1.2753615296378133e+01 1.5363114254241500e+01 0 0 0
224 1 1.1482934449229516e+01 1.1250030279576002e+01 1.6560878120535556e+01 0 0 0
622 1 1.7890926459356656e+01 1.0129436091746365e+01 1.6066891360132555e+01 0 0 0
180 1 1.9211483052335932e+01 1.2371647879039712e+01 1.5440324231891923e+01 0 1 0
169 1 2.1844612360873910e+01 1.1243463819186220e+01 1.5994462381594404e+01 0 0 0
93 1 2.5671408969608553e+01 1.1142360736336547e+01 1.3970031548696030e+01 0 0 0
1048 1 2.1132800587228475e+00 1.4966071541150589e+01 1.4164219209204227e+01 0 0 0
1169 1 5.6322211655517691e+00 1.3624555259897750e+01 1.6687898361654110e+01 0 1 0
2947 1 4.8249915694740713e+00 1.5435675412081913e+01 1.5019816835912309e+01 0 0 1
2602 1 8.8283083468041834e+00 1.4855629054245579e+01 1.4082357477521560e+01 1 0 0
1367 1 9.1442931955435807e+00 1.6156986750469606e+01 1.6797479563338225e+01 0 0 0
681 1 1.2731920332767112e+01 1.3694378611637124e+01 1.5792219447972476e+01 0 0 1
883 1 1.5375573008022405e+01 1.3015613017946158e+01 1.6567938551303119e+01 0 0 1
2376 1 1.9398234066884388e+01 1.4475688989232161e+01 1.7090199534459234e+01 0 0 0
325 1 2.3997036954846095e+01 1.5313695271680466e+01 1.5263851986730902e+01 0 0 0
3809 1 2.3157852949193767e+01 1.3655770886305202e+01 1.7154953443318266e+01 0 1 0
1935 1 1.1922222063059227e+00 1.6579378087506306e+01 1.6396759583559145e+01 0 0 1
1220 1 5.1638311917237667e+00 1.7850863413834684e+01 1.5834855899137963e+01 0 0 0
239 1 7.5713320866732943e+00 1.8338836639796941e+01 1.6819686677502169e+01 0 -1 0
762 1 1.5091662626144032e+01 1.8623635927854938e+01 1.6257677670310500e+01 0 0 0
3038 1 1.2999543342971839e+01 1.7348728272540207e+01 1.5298216131006305e+01 1 0 1
320 1 1.7280741274050712e+01 1.7954272585716645e+01 1.4783828616386932e+01 0 0 0
1588 1 1.9997820232185244e+01 1.6444848123672678e+01 1.5056303193169512e+01 0 0 0
1029 1 2.2587166413504782e+01 1.7551799768627109e+01 1.5184417952452272e+01 0 0 0
390 1 7.3880757327914104e-01 1.9483877778548205e+01 1.5621796093764717e+01 0 0 0
181 1 5.8629756049295878e+00 2.1823087557365408e+01 1.4574906519164896e+01 0 0 0
1853 1 8.8592722260320791e+00 2.2377047287772371e+01 1.6331194016081621e+01 0 0 0
2052 1 8.1724148627168915e+00 2.0070421558214523e+01 1.4733801559536708e+01 0 0 0
221 1 1.1857028883677202e+01 2.0982623693722079e+01 1.6867600928170148e+01 0 0 0
3723 1 1.1026957337900098e+01 1.9491307468080663e+01 1.4735226219704840e+01 1 1 0
398 1 1.4645379945360489e+01 2.1165877023598387e+01 1.5544594274087864e+01 0 0 0
594 1 1.7344042763091501e+01 2.1681342318854323e+01 1.5284866241401316e+01 0 0 0
849 1 1.9544292586730863e+00 2.4653079950191174e+01 1.5775978394216320e+01 0 0 1
2448 1 3.0663965898460441e+00 2.2596644528661017e+01 1.7185137287630322e+01 1 0 0
576 1 5.8236280756105172e+00 2.3310939072100201e+01 1.6830582982902669e+01 0 0 0
1291 1 8.9348378106045256e+00 2.5423851323658067e+01 1.5158628216547083e+01 0 0 0
2456 1 1.2968808315777315e+01 2.3872460070981834e+01 1.6376728582358201e+01 1 0 0
1156 1 1.5087696464044155e+01 2.4904710792800557e+01 1.4420257627568260e+01 0 0 0
306 1 1.7953209260979719e+01 2.4254949126774932e+01 1.4329257274499941e+01 0 0 0
1936 1 2.2925078054335266e+00 2.0886405615932970e+00 1.9329851565244422e+01 0 1 1
2164 1 4.6703022266563083e+00 3.6479962917140191e-01 1.9057519302676134e+01 1 0 0