LAMMPS data file via write_data, version 7 Aug 2019, timestep = 5000000

4089 atoms
1 atom types

1.3324644410624842e-01 5.1286753555888424e+01 xlo xhi
1.3324644410624842e-01 5.1286753555888424e+01 ylo yhi
1.3324644410624842e-01 5.1286753555888424e+01 zlo zhi

Masses

1 18.15

Atoms # atomic

1392 1 4.9535773607423685e+00 2.7681903844819931e+00 1.3015859856113419e+00 -1 2 -2
784 1 5.6811251661668773e+00 4.3618229768509498e-01 2.8639272228080355e+00 0 1 1
3982 1 5.0703139007364495e+00 1.2010229974672237e+01 2.9779458749981746e-01 2 2 0
2349 1 2.5702349987367040e+01 6.6895656875504317e+00 1.1375960808194982e+01 3 -1 -1
247 1 3.7193049135877387e-01 9.6721925853657265e+00 8.3772136871825271e+00 1 -2 1
110 1 7.1858905818374419e+00 3.4551085308973644e+00 2.5858555406052480e-01 1 1 2
559 1 2.0978325508056155e+01 8.0838556601302269e-01 1.6050569511865092e+00 1 -2 2
3727 1 2.2951155532202304e+01 2.3629431900558959e+00 2.9034513536699369e+00 1 1 2
3683 1 3.9721301372920084e+00 4.6455705159041969e+00 3.1412506836716729e+00 1 1 -1
239 1 9.4039470665062659e+00 3.9261872013203050e+00 2.1591663896154762e+00 0 0 0
2530 1 1.1749902633042757e+01 4.7092908709681023e+00 1.1295893017248289e+00 -1 1 0
3808 1 1.3296186643562041e+01 4.8002097504433259e+00 3.4294659821324784e+00 2 0 4
2364 1 1.5788665747610967e+01 5.4900518370055664e+00 2.3162686952602991e+00 1 0 2
3652 1 1.8004637886536496e+01 3.6234037517756725e+00 2.7864493778590105e+00 1 0 -2
1145 1 6.3924925662364558e+00 2.3695330550829603e+01 1.4227539469009759e-01 -1 0 0
2962 1 2.3909239100212744e+01 4.1121264523193055e+00 8.3020036673886122e-01 -1 -1 3
421 1 3.0676288464663379e+00 9.2248615166381835e+00 2.9059792417356212e+00 -2 1 -2
2710 1 3.7951648256016832e+00 7.0715988518284876e+00 1.6417697550691697e+00 2 2 0
2910 1 2.7539848984902404e-01 1.8748248670928103e+01 9.0413627552538411e+00 1 1 2
2274 1 8.0608174555341137e+00 8.1112063795676548e+00 2.3688172406176045e+00 0 1 0
5 1 1.0461913726583516e+01 8.8548504248775171e+00 1.3152830087197829e+00 0 0 1
1099 1 1.2282186620837747e+01 9.1357474287865958e+00 3.3753713281442725e+00 1 1 0
2 1 1.6729130783338540e+01 7.9449266113705317e+00 2.9475374969294701e+00 0 -1 1
1816 1 1.9023975178980397e+01 8.6985806241260324e+00 1.7341610383881527e+00 -1 0 1
3048 1 2.1099867215632475e+01 6.8647443181140853e+00 2.5578710293432891e+00 -1 1 1
1405 1 2.9072764534615732e+00 1.1455487351292764e+01 1.5156377351260528e+00 2 -2 1
3407 1 2.5478104637469713e+01 9.9419715412590790e+00 1.6436080829383876e+01 -2 0 0
2122 1 7.1000183438910689e+00 1.2028916987187721e+01 2.4693587406260518e+00 0 0 -3
2030 1 9.1844169158412523e+00 1.3087628306380498e+01 1.0902766123596381e+00 4 0 0
3084 1 1.4723914813877528e+01 9.6973804481745951e+00 2.2761093182691026e+00 1 0 1
3221 1 1.5581580860826580e+01 1.2226942785446107e+01 2.9240693768062012e+00 0 0 0
2070 1 1.9703596889124228e+01 1.1181137453800490e+01 2.3728315853850130e+00 -2 1 0
3185 1 2.2196405488928516e+01 1.1868882647165243e+01 1.4337943320923026e+00 0 1 0
2640 1 2.4258419798869792e+01 1.0027150112936198e+01 2.1281749339195097e+00 2 -2 -1
450 1 1.9647257491608375e+01 7.0950148100009924e-01 1.1983338268998784e+01 -2 2 -2
1134 1 1.4678411154296283e+00 1.5470392358285565e+01 1.6404533510555876e+00 -1 1 -2
241 1 1.9029995035438947e+00 1.3316282372231406e+01 3.3272559712153331e+00 0 -1 0
324 1 2.1951583805364645e+01 5.9623020303255752e+00 1.5224538147951261e-01 -1 0 0
1886 1 1.1110150034869459e+01 1.3289532164321709e+01 3.2330101625458809e+00 1 -1 3
3944 1 1.3515759507668973e+01 1.3786846017906299e+01 2.0943977765656565e+00 -1 2 0
2110 1 1.7948111373012498e+01 1.3016661452917692e+01 1.6140469092855931e+00 0 1 -1
1213 1 1.8651235382109466e+01 1.5510565653095137e+01 2.4902156695048672e+00 1 2 0
1677 1 2.2767589268043732e+01 1.4674180761177341e+01 1.8835814182782551e+00 -1 -2 4
375 1 2.5363109934116739e+01 1.5382148861665696e+01 7.8047963310006840e-01 -2 0 1
3491 1 1.6224510964065684e+00 1.8263928763515434e+01 2.7708038932951342e+00 3 3 2
1720 1 5.7233018475310509e+00 1.6717053979158624e+01 2.4853371146066530e+00 0 2 2
2980 1 8.3027625861908252e+00 1.7110935711253727e+01 1.3314212489894048e+00 1 0 1
3441 1 1.0139471157749684e+01 1.7311644175407871e+01 3.1514998897532500e+00 -1 0 2
3076 1 1.2494300420074662e+01 1.7866510354254967e+01 1.9481087159904482e+00 -2 2 -1
2209 1 1.4673151468292494e+01 1.6399666972516449e+01 2.7417212026885305e+00 0 -1 -1
15 1 1.6666505048099395e+01 1.6784591532609262e+01 1.4237135340672558e+00 2 0 0
2842 1 2.0769789652929727e+01 1.6337006923581807e+01 1.2423600461058422e+00 3 1 0
1067 1 2.1502630706257708e+01 1.8590421928644787e+01 1.8969248882303473e+00 -1 -1 -1
1463 1 2.5306874864135612e+01 4.1912754591459560e+00 1.4873097155217522e+01 0 0 1
3093 1 2.2835783514122165e+00 2.0150192423483915e+01 8.0222082790668692e-01 0 -1 -1
580 1 2.4984684748470059e+01 2.4626671596210858e+01 7.3996394900951667e+00 0 1 0
2332 1 4.0135086299097793e+00 2.1894477192582539e+01 2.4248957485670317e+00 2 1 0
1995 1 6.6789644895926523e+00 2.1285309468786036e+01 1.6752222318028700e+00 1 1 1
26 1 8.7759001476669045e+00 2.1714356360344283e+01 3.3458560156158561e+00 0 0 0
2502 1 1.3037318196888204e+01 2.0444407215954826e+01 2.4405525910593400e+00 1 2 -1
2656 1 1.5251159554425403e+01 2.1158948397429640e+01 1.1540631106296357e+00 2 1 1
1270 1 1.7154074370657419e+01 1.9514751171861267e+01 2.1655514889079903e+00 -1 -1 -2
117 1 1.9511034480751672e+01 2.0172763510897262e+01 1.1061365246866555e+00 0 -2 -2
1476 1 2.3968548446775120e+01 1.9482330216825147e+01 4.9184296028049190e-01 1 1 1
3195 1 2.4196358078174409e+01 2.1943860483088990e+01 1.3459815523806462e+00 -1 1 0
1092 1 2.0534436603159838e+00 2.4225935459744250e+01 1.8614908138799227e+00 2 0 -2
1718 1 1.1170656376009800e+01 2.2423325428463517e+01 1.8886564922901952e+00 1 1 -2
2128 1 1.1533469478621694e+01 2.5059322355120777e+01 2.2675376407827716e+00 2 0 -1
2796 1 1.5899057426978889e+01 2.3608782022496346e+01 1.7362674082593874e+00 0 0 1
690 1 6.2959772173175681e+00 7.7113571141119150e+00 4.2235759292659464e-01 0 -1 1
3088 1 1.8293184760268929e+01 2.4642628871025867e+01 1.0930237795348687e+00 -1 0 1
3520 1 2.0059560908102593e+01 2.2826144315031208e+01 1.7978542807075111e+00 2 -2 0
1155 1 1.2973063978607911e+01 2.5409757731902364e+01 1.5690069640264879e+01 1 1 1
2132 1 7.7797602923171394e-01 2.1161275864046623e+00 5.5719297908358003e+00 1 -1 1
106 1 6.6500853462360352e+00 2.1769841503404241e-01 1.3564776970775878e+01 1 -1 -1
987 1 6.3330958094558554e+00 2.9665039232718295e+00 6.4509818650378925e+00 0 0 -1
3700 1 7.3261937715997769e+00 1.0935055618584089e+00 4.8783416792443992e+00 2 3 -1
1489 1 9.6120602476941617e+00 1.7791381814310367e+00 4.1675500739653231e+00 -1 2 -1
584 1 1.1399776746196283e+01 2.0062735328832475e+00 6.5100886743192126e+00 0 -2 0
484 1 1.3410840482334869e+01 2.6519597361331733e+00 5.1281950244467742e+00 0 2 0
3420 1 1.5750537933734433e+01 2.9590395058555128e+00 6.7675834370630579e+00 -1 -1 -1
153 1 1.6785041466269217e+01 1.7309775647713368e+00 4.5244276122792701e+00 1 -1 1
1416 1 2.1888341635075719e+01 3.2963957705924285e+00 5.0648198098704347e+00 1 1 1
1794 1 3.1977253260375704e-01 2.1777295997207410e+01 5.2285772152252985e-01 0 -1 1
1346 1 1.5337329905776798e+00 4.4803163163366300e+00 4.7724320587424538e+00 0 3 0
1204 1 5.9743560229601478e+00 5.2740444358679355e+00 4.6636592320542016e+00 -1 1 -1
2978 1 8.4938340276700668e+00 5.8981965361621853e+00 3.5324146832156429e+00 2 0 0
3494 1 9.9301939872233707e+00 6.5131111053265869e+00 5.7461298554798077e+00 1 -1 0
975 1 1.8784689931125111e+01 6.5550837846644434e+00 6.0092528112728996e+00 1 1 0
1498 1 2.0094228101915185e+01 4.9829099435358328e+00 4.1103176006484414e+00 -1 0 0
3508 1 2.3902263009094330e+01 4.6496060798277128e+00 6.6705057938682435e+00 -1 -1 2
4032 1 8.9360387004449038e-01 8.1094726139740114e+00 6.4195504687787368e+00 2 -1 1
1911 1 5.7532215772521045e-01 9.6203603164259182e+00 4.4179751403061536e+00 -1 0 1
1386 1 5.0412207006871874e+00 7.1529238675699922e+00 6.3026490686235865e+00 1 1 3
2391 1 4.5896105787018930e+00 9.5568428389649238e+00 5.1745444401543166e+00 1 -2 1
998 1 1.2537614362161122e+01 6.6434760891733440e+00 4.7558047185573935e+00 -1 3 0
3658 1 1.4457286637809885e+01 7.6887054452419639e+00 6.9107778582911674e+00 0 -1 0
3518 1 1.6647419245549909e+01 8.1443878282192816e+00 5.5136047080839594e+00 0 1 1
3390 1 2.1812218251931935e+01 9.6239885484608685e+00 5.5532270262225856e+00 1 0 1
1485 1 2.5150112930115903e+01 6.5808576553351568e+00 4.8726338706536119e+00 -1 2 1
82 1 2.3072330041148806e+01 8.1844448014125835e+00 3.8315560557574702e+00 0 -1 -1
3867 1 3.8740398223154644e+00 1.2018499096338351e+01 6.3660069406666091e+00 2 1 -1
3639 1 7.1373833020762669e+00 9.7528883069723982e+00 4.0826427516910568e+00 0 0 2
356 1 8.8682254061145258e+00 1.0750670063411325e+01 5.5287603108126779e+00 0 2 0
3609 1 1.1487513645978510e+01 1.1069471922393301e+01 4.5322866874273400e+00 -1 -1 -2
1393 1 1.5810744740810991e+01 1.2375289619842590e+01 5.5968755874503717e+00 -1 -1 1
2658 1 1.3343811215056826e+01 1.1519136502371737e+01 6.5176430726585064e+00 1 -2 2
805 1 1.7558758765721233e+01 1.0638712966711198e+01 6.3203815558224257e+00 -1 0 3
322 1 1.9779026455826006e+01 1.1440698967775999e+01 4.9070968183895953e+00 -1 0 1
567 1 2.5053683064200175e+01 1.3030435416754893e+01 5.3519207832284499e+00 0 0 2
3333 1 3.9487437232763480e+00 1.4254435100274151e+01 4.9296914051888239e+00 0 2 -1
839 1 6.3040078806796487e+00 1.4583255718296936e+01 3.9851851278983998e+00 -1 1 1
963 1 8.1203804746399868e+00 1.5132787625819828e+01 5.8630717881563914e+00 1 1 0
2707 1 1.0396804192958326e+01 1.5318310507796548e+01 4.7506232081678013e+00 -1 1 -2
1483 1 1.6424848266192996e+01 1.5017622024205682e+01 6.1971387744330064e+00 -1 0 0
3016 1 1.8873311145218779e+01 1.5310958474697717e+01 5.1209385951934943e+00 1 2 3
182 1 2.0896999210727643e+01 1.3754106924157158e+01 5.6546033460048006e+00 -1 1 0
3276 1 2.3126572146204218e+01 1.4904380974254082e+01 4.5065464926153043e+00 2 0 1
3044 1 2.9167795789632218e+00 1.8641195902671054e+01 5.0229989863257991e+00 1 -1 3
2356 1 2.7980052419516523e+00 1.6463238367682138e+01 6.7021046912878584e+00 0 -4 1
3369 1 4.9501974850604924e+00 1.9034523954147957e+01 3.6285278981167455e+00 1 0 2
3197 1 6.7988439742603717e+00 1.8992206568321560e+01 5.5349160474808983e+00 -1 1 -2
3266 1 9.0075211047959840e+00 1.9301160830844420e+01 4.6711091078951217e+00 1 3 1
829 1 1.4488731317032267e+01 1.6846269395057309e+01 5.4245250621814556e+00 0 1 1
891 1 1.5147008075467790e+01 1.9079949832961063e+01 6.1787007490409351e+00 0 1 0
807 1 1.9228495924724715e+01 1.7998340665952647e+01 5.6692322281845398e+00 -1 -1 0
3839 1 2.1584801469074122e+01 1.8751266672894086e+01 4.7792189179894411e+00 1 -1 0
2400 1 2.3750505083218442e+01 1.7212012131030455e+01 5.3214940521411780e+00 0 0 1
633 1 2.4366871681930942e+00 2.0746209352343044e+01 6.4177932061579464e+00 1 1 1
1257 1 4.3795704389324195e+00 2.2104896315649611e+01 5.4980214263078251e+00 2 1 1
2664 1 8.6445680323270206e+00 2.2272553496956206e+01 7.2415656395226824e+00 1 0 1
3519 1 1.0620388644117588e+01 2.0080279747106623e+01 6.5160750236631015e+00 2 -1 1
1700 1 1.3057622960112328e+01 2.0531933147054811e+01 5.1838516499914817e+00 -1 1 2
122 1 1.7228717575418106e+01 1.9772945516528871e+01 4.7007702674285783e+00 0 -2 2
2734 1 1.7718012201693487e+01 2.2374351126722861e+01 5.7125486534539780e+00 2 1 1
3814 1 2.2083194780645591e+01 2.1433857520053095e+01 5.1825119994567164e+00 0 -3 1
1002 1 2.4450972036258943e+01 2.2117124180224742e+01 4.1285865795779353e+00 1 0 0
900 1 1.5714293301448324e+01 2.4524878650475973e+01 1.5706016815928681e+01 0 -1 -1
770 1 4.8244045897811541e+00 2.4816265716279158e+01 6.1742229505361133e+00 1 -3 -1
800 1 9.0042246436518383e+00 2.3798467695238763e+01 4.9757838340421667e+00 -1 2 2
1039 1 1.1524804591387943e+01 2.4879708531309880e+01 4.8088578728360147e+00 1 1 -2
1514 1 1.3615404736048747e+01 2.3159072964630464e+01 5.5871907075189204e+00 -1 2 -3
2039 1 1.5787131904080848e+01 2.3968081455053035e+01 4.3748346003329788e+00 1 -2 -1
1159 1 1.4948156991884753e+01 3.9354973529185794e-01 3.0695091357760456e+00 -1 -1 -1
842 1 2.0061854274171523e+01 2.3208381348592358e+01 4.4788568929430648e+00 -1 0 2
3834 1 2.4935127505130421e+01 2.4775434716884778e+01 4.5371312316109185e+00 0 -1 2
1137 1 4.6737482319557380e+00 1.0229368622568118e+00 8.0014488950681333e+00 2 -1 1
3703 1 3.9918503031480008e+00 2.5715636729784443e+00 1.0134465037289013e+01 0 2 -1
1575 1 8.4107348348221240e+00 1.4245644350696989e+00 9.7396983711659217e+00 0 1 0
1192 1 1.4259975020549891e+01 1.1423590568221329e+00 8.6640293996120459e+00 1 -1 -2
2862 1 1.3421948313407464e+01 2.5459757236292133e+00 1.0843741193742058e+01 1 2 2
4008 1 2.0926292088208083e+01 1.1602066652542513e+00 6.8677060570202952e+00 -1 0 1
702 1 1.9934367519773055e+01 2.9382360298969421e+00 8.7235318861202806e+00 2 1 1
1901 1 2.3774374087975474e+01 1.8091110956265417e+00 7.5391631548433571e+00 0 2 -1
1943 1 2.6073253690015736e+00 6.0070945904821302e+00 7.0728165066724831e+00 0 0 3
2655 1 2.2791781553544732e+00 4.4070014428509339e+00 9.0160152394907236e+00 1 0 0
2687 1 8.3870019473228119e+00 3.7544364217665569e+00 8.1536869263059746e+00 0 0 1
1592 1 7.4386517237775989e+00 5.8097417385433587e+00 1.0001742508817776e+01 0 1 -1
2914 1 1.0917554463613603e+01 4.3636312143051601e+00 7.3130201145766787e+00 0 0 0
335 1 1.2521268673628269e+01 4.8821063131218176e+00 9.6244234401308137e+00 0 -2 -1
3975 1 1.4841124732933476e+01 5.4262439360659593e+00 8.3907079968101694e+00 1 1 2
146 1 1.7970282672547668e+01 4.6669416511145991e+00 7.7348220226753304e+00 -2 0 1
1173 1 2.1191746117878690e+01 4.8789778458224102e+00 9.6675694255484377e+00 -1 0 1
531 1 2.2642272912123776e+01 6.2026857879364012e+00 8.1374579433939829e+00 -1 2 -1
3375 1 2.6210801468994003e+00 2.4340853778439630e+01 1.4391652586017617e+01 1 -1 0
4010 1 6.5348762072877848e+00 7.7876065818541669e+00 8.4124721774958680e+00 -2 4 2
3503 1 9.4085047166906950e+00 8.5775916864155715e+00 7.3274180278175729e+00 1 -1 0
212 1 1.0954349971505655e+01 9.1780970104015722e+00 9.4535951361484880e+00 2 -1 2
933 1 1.3356759084776462e+01 9.6923624392931966e+00 8.4908161076751565e+00 0 0 1
1357 1 2.0800708930380956e+01 7.9179223236173852e+00 7.1751814989071816e+00 -1 0 1
1900 1 1.9634748235805812e+01 8.9284991471275710e+00 9.9386107569427846e+00 1 -1 0
3416 1 2.4189128021465432e+01 8.1578685111042919e+00 9.7442168263922717e+00 -3 -1 0
679 1 2.4738413428576056e+01 2.2812085940896353e+01 1.1548878096443705e+01 -1 -1 2
4028 1 1.3286595387338704e+00 1.1776706028962391e+01 7.3900328104218316e+00 0 0 1
2996 1 6.2089834874670018e+00 9.9078784113828409e+00 9.8644944550999494e+00 -1 0 1
3102 1 5.5895494062484659e+00 1.2115849866054962e+01 8.4683670267171820e+00 -1 0 -1
2551 1 8.0766103598513208e+00 1.2603660306690752e+01 7.4256266212395801e+00 -2 1 0
2891 1 9.8176534557744795e+00 1.3075458219822682e+01 9.3589761564153733e+00 1 0 3
2869 1 1.5181293095908233e+01 9.9996584887365803e+00 1.0315602275725203e+01 1 0 3
2275 1 1.7727140507001785e+01 1.0639240458654255e+01 9.3504945823273342e+00 -1 0 0
3261 1 2.2962578505283307e+01 1.1936088238067535e+01 9.6453577866992379e+00 0 1 0
628 1 2.3545298174788691e+01 1.1092837036874799e+01 6.9103986704887612e+00 -3 1 0
3290 1 2.5253956433931709e+01 1.2895574974161786e+01 1.0404020083290829e+01 -1 2 -3
2022 1 7.1127094941655455e-01 1.3884591138648334e+01 8.7702029010380862e+00 -1 0 1
3906 1 7.1826617846661129e+00 2.4836264264974840e+01 1.5058283418407607e+01 -1 -1 -2
4061 1 4.9571492581470258e+00 1.4283910306659941e+01 1.0143977023610505e+01 -1 -1 1
3606 1 1.2227635812477340e+01 1.6053423328784945e+01 6.5663423491691120e+00 0 1 -1
19 1 1.2355294461544378e+01 1.3770136516790286e+01 8.1826150942008304e+00 -1 2 -2
2636 1 1.3974563775596781e+01 1.4064725631290113e+01 1.0303521413692506e+01 4 -1 2
3041 1 1.8383062491253423e+01 1.3102277010629640e+01 1.0111224960355727e+01 0 2 1
2797 1 1.6390386683960958e+01 1.4834598272245863e+01 8.9882578199420564e+00 1 -1 1
3132 1 2.0834682119514870e+01 1.3647874151416461e+01 8.6360361452006043e+00 0 -1 -1
3257 1 4.6388899318491879e+00 1.6628596233554948e+01 8.7497244649602131e+00 0 -1 -1
3680 1 4.1307534390922314e+00 1.8785286331133133e+01 1.0354970584924303e+01 2 -1 0
2387 1 6.8811905008524512e+00 1.6959079437325840e+01 7.5742051995418764e+00 1 -1 2
1682 1 8.7030955525894775e+00 1.7457042748929616e+01 9.3467966058053200e+00 0 2 0
3065 1 1.1290074424457558e+01 1.8011465549211366e+01 8.3257579597997307e+00 -1 0 -1
2419 1 1.3244725527718819e+01 1.8227158104762641e+01 1.0484662988233447e+01 -1 -1 0
711 1 1.5249422042797553e+01 1.8717435262664644e+01 8.7924538981075298e+00 0 -1 -2
3362 1 1.7404411570099555e+01 1.7208101111393677e+01 9.4724517240908970e+00 1 0 -1
1447 1 1.9678466929752446e+01 1.8168301319140792e+01 8.1311777585546530e+00 -1 1 0
3466 1 2.1296549296305088e+01 1.6332378677699236e+01 9.3608399784509100e+00 2 0 1
3473 1 2.3609285404891104e+01 1.7159395110900398e+01 8.1185868877699576e+00 1 2 1
591 1 2.2918288971743515e+00 2.0127831854909186e+01 8.9644152723826949e+00 0 0 1
1431 1 6.1268262566307659e+00 2.0643118220522023e+01 1.0181049526026747e+01 0 0 1
100 1 6.3866859555960263e+00 2.0998380733030974e+01 7.3504247217166014e+00 -1 1 0
522 1 1.1581012267609704e+01 2.1327794295243510e+01 9.0285649459460533e+00 -1 -2 1
2642 1 1.5869116996331826e+01 2.1395250610268842e+01 9.3999428562567484e+00 1 -1 1
722 1 1.8064460326375055e+01 2.2589419659988021e+01 8.1904431407493075e+00 0 0 2
3827 1 1.9969439223603679e+01 2.0902774134498298e+01 8.9751513288747855e+00 1 0 0
3569 1 2.2209296865563804e+01 2.1719879395541309e+01 7.9793648647332329e+00 1 0 0
528 1 2.4291716409697425e+01 1.9878391928723683e+01 8.6525743549823328e+00 -2 0 1
1619 1 1.5489114146731626e+00 2.4095307418897942e+01 9.2727711950864151e+00 2 0 -1
2350 1 4.2210246520251236e+00 2.5179953076832710e+01 8.6382242437527861e+00 1 -1 1
195 1 8.8167667530651048e+00 2.3793267103754093e+01 9.3574309562373195e+00 2 -1 -2
2819 1 2.5556295237169259e+01 1.4029615985670455e+01 1.5913472716780863e+01 2 -1 -1
2129 1 1.3875476551209916e+01 2.3113081941344937e+01 8.2805168304858903e+00 2 0 0
3033 1 1.8604551389526968e+01 2.5026073925986331e+01 9.1212732767342697e+00 -1 -1 1
79 1 8.7428340507465023e+00 1.0422068116096165e+01 1.7103347797372898e+01 -1 -3 0
704 1 7.6285146229167768e+00 1.4874618237423636e+01 1.6843588664720187e+01 1 2 0
3055 1 2.2574087345503003e+01 2.4221839180658382e+01 8.5823907686463077e+00 2 -1 2
1206 1 2.7661380017345079e+00 8.1794867477507860e-01 1.1690661772683082e+01 1 0 1
1519 1 1.6921624867877307e+00 2.0526111180169786e+00 1.3998450665484226e+01 2 1 1
74 1 7.6974898863783086e+00 2.4179609817431484e+00 1.2311192943921961e+01 1 1 1
71 1 1.2091005226091330e+01 8.5688580587880614e-01 1.2538366445727899e+01 -1 1 0
736 1 1.6092584323341299e+01 3.0062058607482012e+00 1.1432814629953400e+01 1 1 0
532 1 1.7878795770096652e+01 1.5532826770699883e+00 1.0165030910088667e+01 -1 -2 0
3990 1 2.1115693336613042e+01 2.3862667701590854e+00 1.3290054465062642e+01 -1 2 1
3585 1 2.4285970500114235e+01 2.2165309439552034e+00 1.0309167928508870e+01 -1 1 1
2660 1 1.3076365451453988e+00 5.7464469767969444e+00 1.1292496078776429e+01 0 1 0
1587 1 1.9785876191642970e+00 4.8118959385451765e+00 1.3503736740896757e+01 2 -1 0
2719 1 5.6631266504611535e+00 4.1605495990412669e+00 1.1546633008419690e+01 0 0 1
1579 1 4.4944094401639463e+00 5.5266021501515876e+00 1.3526649208253712e+01 1 1 0
745 1 8.9231194221267192e+00 6.3590641196736160e+00 1.2014670101669564e+01 1 1 0
1101 1 9.3477028704817027e+00 4.3044334749929192e+00 1.3548756557335196e+01 2 0 -2
2042 1 1.3214129900587160e+01 4.1981832537252073e+00 1.3301716553540711e+01 1 1 1
873 1 1.6437894941213425e+01 5.4783501717053635e+00 1.0449671200512832e+01 0 -1 -1
2019 1 1.9274481088275039e+01 6.5531330233109362e+00 1.0872515547503150e+01 -1 3 -1
2155 1 1.9336254169251163e+01 6.4181603868607260e+00 1.3835771323518703e+01 1 1 0
3851 1 4.8990476080636525e-01 1.6410549951852431e+01 7.8732553534661189e+00 2 2 0
3934 1 2.2475199364200442e+01 3.6355167868785490e+00 1.1533931477723497e+01 0 -2 1
2096 1 2.3738175183911221e+01 5.4832056448204742e+00 1.2954459599051370e+01 1 3 -1
3560 1 1.3868509080911857e+00 8.5953178544480071e+00 1.0923481444695048e+01 0 -2 -1
2919 1 4.6623581923820030e+00 8.0595024124580714e+00 1.3536326363244839e+01 -1 2 2
617 1 7.5228953587686851e+00 7.9532771960756854e+00 1.3345430395534786e+01 -2 -1 0
2197 1 1.1293465246706180e+01 7.0926592486059805e+00 1.0859360750682731e+01 -1 3 -2
3125 1 1.3195502649218625e+01 6.7981730245123888e+00 1.2958562969335842e+01 1 1 0
104 1 1.5338854467314224e+01 7.6684874323463585e+00 1.1803831878068078e+01 4 0 0
1394 1 2.8756859757926523e+00 1.1822990740423689e+01 1.2227978349508041e+01 -1 -1 0
481 1 3.7966639055835878e+00 9.2361353981278143e+00 1.1188265280579332e+01 -2 2 -1
2778 1 7.6325707493374715e+00 1.0323976922756986e+01 1.2071519637151424e+01 -1 -1 2
1768 1 6.8985872903588001e+00 1.2392580609428386e+01 1.3730260248616469e+01 -2 -2 1
1723 1 1.0097878510312887e+01 1.0951246785129250e+01 1.1108793655494624e+01 1 2 3
224 1 1.2023959807915684e+01 1.1751035657083770e+01 1.3070324529681455e+01 0 1 -1
1754 1 1.4451510813889255e+01 1.2095190084511133e+01 1.1955458347259782e+01 0 1 -1
562 1 1.6203711281314515e+01 1.2165982492015283e+01 1.3855668026321274e+01 1 -1 2
2107 1 2.2018550831760404e+01 9.6872404093914941e+00 1.0705390818582353e+01 1 1 0
2367 1 4.3932173013960654e+00 2.4397139196301278e+01 1.6498236501668586e+01 1 -1 1
1335 1 2.2552010416653776e+01 9.8204882835402394e+00 1.3309997087045613e+01 0 2 0
2131 1 2.4945548994880291e+01 1.0145668716479502e+01 1.3911679187524422e+01 0 0 4
729 1 2.5444759385938527e+00 1.4166946060576750e+01 1.0708445756176435e+01 -1 -1 1
4029 1 1.8974420596564840e+00 1.6179016201210480e+01 1.2705083411255542e+01 -1 1 3
1179 1 6.8662470508214239e+00 1.4391456886657783e+01 1.2020477150166389e+01 1 -1 0
2448 1 8.9670161206954777e+00 1.5346346047109671e+01 1.0846423042527544e+01 1 1 -2
3149 1 1.0765370438092683e+01 1.5595142367869313e+01 1.2723742540916136e+01 1 -1 1
2603 1 1.8692554463281471e+01 1.3033180778507687e+01 1.2796103252419494e+01 -1 1 0
2712 1 1.8953355302440883e+01 1.5589791546889083e+01 1.3602479132195885e+01 2 -2 -1
3678 1 2.1178883916220233e+01 1.6339204549014642e+01 1.2033450499213307e+01 0 0 -1
1078 1 2.3221262673538501e+01 1.4607521906528294e+01 1.3031345969911328e+01 0 2 -1
3116 1 3.9108998155085355e+00 1.7757260741449322e+01 1.2985646651447816e+01 1 1 1
2542 1 6.3020102122365378e+00 1.6634922901342435e+01 1.3438873057395712e+01 0 1 -2
3556 1 7.9238082649536787e+00 1.8602741676493221e+01 1.3768225655897412e+01 0 0 1
1281 1 1.3505390588786499e+01 1.6001786554308410e+01 1.2039372068949332e+01 -2 0 0
1785 1 1.5352061942847779e+01 1.6414348138049103e+01 1.3640342187433578e+01 1 -1 2
2845 1 1.7566618380304188e+01 1.7353934901295570e+01 1.2193008585330725e+01 -1 0 1
848 1 2.2184989915166369e+01 1.8858718684855074e+01 1.2690881022222756e+01 -1 -1 0
552 1 2.1161445377913499e+00 2.2009861342725547e+01 1.0964428092058469e+01 -1 -2 1
2713 1 3.5002114231014270e+00 2.2137437136887829e+01 1.3231803733223629e+01 1 1 0
1321 1 8.3974330155662980e+00 1.9434375465119913e+01 1.1132892102382598e+01 0 -1 -1
774 1 9.9526457097642425e+00 2.1767081304809647e+01 1.1076798872411299e+01 0 0 -1
1219 1 1.2886048931988187e+01 2.0695774705847978e+01 1.2246918452644508e+01 -1 3 -1
1146 1 1.5555450766000726e+01 2.1708531843640461e+01 1.1960847903420028e+01 -1 -1 0
2865 1 1.7605308066531880e+01 1.9898447990588963e+01 1.2987895476718906e+01 1 0 1
3037 1 1.9936354968714305e+01 2.0597239265962944e+01 1.1995533867845642e+01 1 -1 -2
3720 1 2.4532119170409359e+01 2.0110625517086604e+01 1.1384663763202671e+01 -1 0 0
1430 1 5.8505269941319398e+00 2.2561045420744531e+01 1.2270952154026302e+01 0 2 -1
1166 1 6.6118806389364702e+00 2.4508516394905314e+01 1.0505911876282234e+01 -1 0 -1
1071 1 1.0752140533384496e+01 2.2677512203574377e+01 1.3621991616744509e+01 1 -1 0
2216 1 1.1859677682108869e+01 2.5033704096325962e+01 1.3233745002895461e+01 0 1 1
8 1 1.6378574767198149e+01 2.4034078174987833e+01 1.2805458041412292e+01 0 0 -1
1105 1 1.8521545699690400e+01 2.5157768526485981e+01 1.1713032465670477e+01 -1 1 0
3573 1 2.0469685270547917e+01 2.3231337972857151e+01 1.2936005122268085e+01 0 0 2
3213 1 2.2367918674828726e+01 2.4402847991127530e+01 1.1400846135358480e+01 1 1 2
2864 1 1.4329473033047201e+01 2.5657677430694378e+01 1.1991652176667657e+01 -1 0 2
3458 1 3.0821929344343877e+00 1.0909996658813341e+00 1.6128255277707900e+01 1 1 -3
1456 1 5.7549912739281588e+00 1.9019507279816941e+00 1.5568259840217559e+01 0 2 1
3246 1 2.1966760188965551e-01 1.7302244608555448e+01 1.6749247871760847e+01 1 -1 1
1912 1 1.2985160407466170e+01 3.6618470593519126e-01 1.3556676104110772e+00 1 0 2
1627 1 1.1075905875707948e+01 2.0226083954933296e+00 1.4755819812958686e+01 1 -1 -1
378 1 9.5804948302932154e+00 1.6712686809292233e+01 1.7172675414019032e+01 -2 -2 1
3040 1 1.6644798055039569e+01 2.8413018319943668e+00 1.3969737104118153e+01 1 2 1
3558 1 2.2650616532279876e+01 8.2061289714128538e-01 1.4998508135071674e+01 2 2 -1
3293 1 2.4033796066683763e+01 2.6409311032293488e+00 1.6618219668749258e+01 0 -1 0
293 1 5.7404759624453803e+00 4.6197296766400582e+00 1.5718323470284430e+01 0 -2 -1
2988 1 8.4248663154427881e+00 5.1368795454317686e+00 1.5916841708883105e+01 0 -1 1
3557 1 1.4880315476283778e+01 4.2665730757671501e+00 1.5664678943070374e+01 2 0 1
2588 1 1.9105272008558927e+01 3.7358939875714614e+00 1.4295178579199836e+01 -2 -1 0
3903 1 3.8028610916429937e+00 1.5979814129617809e+01 5.5690920725127158e-01 2 1 1
3947 1 6.9626990469403349e-01 6.4423266586819983e+00 1.5443201821452849e+01 3 0 1
1779 1 1.0337666536390557e+00 9.0585187833915128e+00 1.5310715449216213e+01 1 2 1
3939 1 3.8686030712279957e+00 9.7737799960269509e+00 1.5548851911272340e+01 -1 0 0
3614 1 9.0256190198872552e+00 7.8614438384000485e+00 1.5660473229934251e+01 1 0 -1
2493 1 1.1655921820772832e+01 7.8822212012298216e+00 1.5368507170778088e+01 -1 -1 0
749 1 1.6613093560867622e+01 6.2987882148113448e+00 1.6605530673174300e+01 -1 -1 2
3081 1 1.7075402166662780e+01 7.7171390551649068e+00 1.4285908871734607e+01 -1 0 -1
2509 1 2.2084606630516451e+01 7.2256206761796919e+00 1.4347870512161759e+01 0 0 -1
1420 1 2.5798424825461003e-01 2.3914593035504701e+01 1.5489084650736070e+01 -1 -1 0
2444 1 4.2886778541503086e+00 1.2111203399101438e+01 1.4429584641657698e+01 -2 0 -1
1526 1 8.5417747866477765e+00 1.2648983396808266e+01 1.5694393590175855e+01 1 1 -1
3435 1 1.3979423598495032e+01 2.5516509272723013e+01 9.1747403877580092e-01 1 1 0
403 1 1.3107138083023081e+01 1.0008154229711677e+01 1.4629212018726616e+01 1 1 0
871 1 2.2242115988476769e+01 6.5145748256889986e+00 1.7053693975671262e+01 -1 1 -1
1267 1 1.6140607345025405e+01 9.8838594316782800e+00 1.5246050459037216e+01 0 0 -1
2061 1 2.4806942663994150e+01 3.8713361995805745e-01 3.3894897091618246e+00 2 1 0
465 1 2.1273511077006006e+01 1.2255406072630576e+01 1.3983353817773425e+01 1 0 0
218 1 1.0637651387549636e+00 1.5442293175709322e+01 1.5081515913483273e+01 -1 0 -1
3769 1 3.3983972409403225e+00 1.4287483676124870e+01 1.5610569869153853e+01 0 1 0
1653 1 5.3510621308551354e+00 1.5973293401449926e+01 1.6184155035671214e+01 0 0 0
155 1 8.0342721997115998e+00 2.2405467305310655e+01 1.4090591808300220e+01 1 2 2
1666 1 1.0993053468237674e+01 1.3605627638911120e+01 1.4453700107958550e+01 0 2 0
2313 1 1.2973229107872271e+01 1.3865909838086802e+01 1.6306660187303521e+01 1 1 0
2108 1 1.5438787857268409e+01 1.4287381589367664e+01 1.5126142512110913e+01 -1 2 0
675 1 2.1059345753516507e+01 1.2292249082054731e+01 1.6630400004099240e+01 -1 -2 -1
1635 1 2.5579520818011456e+01 9.7350695970516536e+00 7.9782585164177933e+00 -1 0 2
952 1 1.0332649071201104e+01 1.7646085348471761e+01 1.4772711067641714e+01 -1 0 2
3173 1 1.4734573487506648e+01 1.8477999965372877e+01 1.5064072384162273e+01 0 0 -1
795 1 1.9333899904944825e+01 2.5004694451036991e+00 7.1661847907122800e-01 0 1 2
1315 1 2.0023295995418792e+01 1.6644807489266682e+01 1.6122129123202228e+01 -2 2 1
406 1 2.2588955536331053e+01 1.7939935455507875e+01 1.5236216683172689e+01 -2 1 2
3131 1 5.6456593326518667e-01 1.9624537820108337e+01 1.5335295091372476e+01 1 1 0
1174 1 4.8951364931137951e+00 2.0192335230623492e+01 1.6695273277156556e+01 0 1 2
1836 1 3.3621033621893317e+00 2.0096772459226930e+01 1.4583243535181124e+01 1 1 -1
22 1 7.2390675268229714e+00 2.0245584301944632e+01 1.5593385999436682e+01 0 -2 0
547 1 1.2031901556787002e+01 1.9572098339937074e+01 1.4568981096263681e+01 1 -1 -1
1478 1 2.5369556477589292e+01 1.2711268077621893e+01 1.3234080303699969e+01 0 -1 -3
3000 1 1.6651707240039400e+01 2.0055544789816587e+01 1.5707749448241044e+01 0 -2 2
2576 1 2.5629877366905415e+01 5.2585375503980520e+00 2.5593491148976355e+00 1 0 1
432 1 1.1264715975508429e+01 2.1169785197911864e+01 1.6607231456220738e+01 0 -1 3
3135 1 1.0336976725217985e+01 1.3336340633963259e-01 1.6435518767741911e+01 1 -1 -1
2373 1 2.4706722218570295e+01 1.6306828246147461e+01 1.4618908583632098e+01 -2 -1 -1
835 1 1.3087559092129650e+01 2.7222944334883987e+00 1.6568539193422978e+01 -1 0 1
1708 1 1.6361538591048660e+01 2.3114827249492287e-01 1.4673450894494339e+01 1 2 3
1680 1 7.2132221734132482e+00 2.5551742010024171e+01 2.1424859957210618e+00 1 -1 1
3859 1 1.9650057476070568e+01 3.5490931812903925e+00 1.6988829478159811e+01 -1 1 1
2763 1 9.0019364489023861e+00 2.4832167018636138e+01 1.7088992537217138e+01 1 -2 0
1922 1 2.5340394616992845e+00 2.0778658969015895e+00 1.8677922746227949e+01 0 0 0
2233 1 4.8089270259118519e+00 2.5712729291755489e+00 1.9374120375566985e+01 1 -1 0
3853 1 6.5126868942320488e+00 1.1262971415833327e+00 1.7982061416943900e+01 -1 0 0
1077 1 9.1101557169531677e+00 1.4072333673699617e+00 1.8346320260069234e+01 1 2 -1