
# Create simulation box and atoms
lattice		    sc 1
Lattice spacing in x,y,z = 1 1 1
region 		    all block 0 51.42 0 51.42 0 51.42 units box
create_box 	    1 all
Created orthogonal box = (0 0 0) to (51.42 51.42 51.42)
  2 by 2 by 3 MPI processor grid

create_atoms	1 random 4457 ${SEED} all
create_atoms	1 random 4457 28300 all
Created 4457 atoms
  create_atoms CPU = 0.000430107 secs

mass		    1 18.15

# Define potential

pair_style 	    sw
pair_coeff	    * * mW_real.sw mW
Reading potential file mW_real.sw with DATE: 2019-02-27

# Run minimization

minimize 	    1.0e-8 1.0e-8 10000 1000
WARNING: Using 'neigh_modify every 1 delay 0 check yes' setting during minimization (../min.cpp:168)
Neighbor list info ...
  update every 1 steps, delay 0 steps, check yes
  max neighbors/atom: 2000, page size: 100000
  master list distance cutoff = 6.3065
  ghost atom cutoff = 6.3065
  binsize = 3.15325, bins = 17 17 17
  1 neighbor lists, perpetual/occasional/extra = 1 0 0
  (1) pair sw, perpetual
      attributes: full, newton on
      pair build: full/bin/atomonly
      stencil: full/bin/3d
      bin: standard
Per MPI rank memory allocation (min/avg/max) = 4.227 | 4.229 | 4.231 Mbytes
Step Temp E_pair E_mol TotEng Press 
       0            0    5345677.6            0    5345677.6    3732271.9 
     720            0   -50244.904            0   -50244.904   -1249.1366 
Loop time of 1.92145 on 12 procs for 720 steps with 4457 atoms

99.4% CPU use with 12 MPI tasks x no OpenMP threads

Minimization stats:
  Stopping criterion = max force evaluations
  Energy initial, next-to-last, final = 
          5345677.6479     -50244.1374483     -50244.9041404
  Force two-norm initial, final = 5.04857e+07 6.72693
  Force max component initial, final = 1.8333e+07 1.58243
  Final line search alpha, max atom move = 0.0455241 0.0720388
  Iterations, force evaluations = 720 1000

MPI task timing breakdown:
Section |  min time  |  avg time  |  max time  |%varavg| %total
---------------------------------------------------------------
Pair    | 1.4474     | 1.6318     | 1.7872     |   8.2 | 84.92
Neigh   | 0.024683   | 0.026168   | 0.02721    |   0.4 |  1.36
Comm    | 0.082401   | 0.23806    | 0.42236    |  21.5 | 12.39
Output  | 0          | 0          | 0          |   0.0 |  0.00
Modify  | 0          | 0          | 0          |   0.0 |  0.00
Other   |            | 0.02544    |            |       |  1.32

Nlocal:    371.417 ave 393 max 355 min
Histogram: 1 1 1 1 4 2 1 0 0 1
Nghost:    1072.25 ave 1103 max 1055 min
Histogram: 2 2 1 3 0 2 1 0 0 1
Neighs:    0 ave 0 max 0 min
Histogram: 12 0 0 0 0 0 0 0 0 0
FullNghs:  11995.5 ave 12870 max 11170 min
Histogram: 2 0 1 1 2 2 1 2 0 1

Total # of neighbors = 143946
Ave neighs/atom = 32.2966
Neighbor list builds = 39
Dangerous builds = 0

# Create Cavity with Hard sphere "indent" potential

region		    cavity sphere 25.71 25.71 25.71 13.8 side in
delete_atoms	    region cavity
Deleted 368 atoms, new total = 4089
fix 		    5 all indent 10.0 sphere 25.71 25.71 25.71 13.8

# Equilibration of molecular water

# Add velocity/set timestep

velocity	    all create ${TEMP} ${SEED} rot yes dist gaussian
velocity	    all create 215 ${SEED} rot yes dist gaussian
velocity	    all create 215 28300 rot yes dist gaussian
timestep	    5.0

# Define output

compute			1 all msd
thermo	    	50
thermo_style	custom step temp press vol etotal ke pe c_1[4]

# Neighbor lists

neigh_modify    delay 0 every 1 check yes

# Set fixes

fix             1 all momentum 10 linear 1 1 1 rescale
fix             2 all nve
fix             3 all temp/csvr ${TEMP} ${TEMP} 500.0 ${SEED}
fix             3 all temp/csvr 215 ${TEMP} 500.0 ${SEED}
fix             3 all temp/csvr 215 215 500.0 ${SEED}
fix             3 all temp/csvr 215 215 500.0 28300
fix             4 all press/berendsen iso ${PRES} ${PRES} 1000.0 modulus 20000
fix             4 all press/berendsen iso 1.0 ${PRES} 1000.0 modulus 20000
fix             4 all press/berendsen iso 1.0 1.0 1000.0 modulus 20000

# Run 1 ns equilibration

dump		    1 all atom 2000 ${DIR}/eq.${NAME}-${TEMP}.dump
dump		    1 all atom 2000 run_9/eq.${NAME}-${TEMP}.dump
dump		    1 all atom 2000 run_9/eq.hardcavity_freeze_9-${TEMP}.dump
dump		    1 all atom 2000 run_9/eq.hardcavity_freeze_9-215.dump

reset_timestep  0

run	            200000
Per MPI rank memory allocation (min/avg/max) = 4.492 | 4.493 | 4.495 Mbytes
Step Temp Press Volume TotEng KinEng PotEng c_1[4] 
       0          215    -408.0499    135955.32   -42938.504    2619.8936   -45558.397 1.9582132e-33 
      50    138.52234   -186.53903    135797.37    -42360.73    1687.9711   -44048.701   0.20552507 
     100    152.82562   -56.639209    135734.38   -41924.149    1862.2644   -43786.414   0.36541828 
     150    169.47737    85.083946    135630.93   -41567.832    2065.1752   -43633.007   0.52416485 
     200    181.71664   -124.53785    135566.06   -41263.592    2214.3174   -43477.909    0.6923766 
     250    187.52128   -131.74127    135457.88    -41051.31    2285.0502    -43336.36   0.90199251 
     300    192.71337   -39.529929    135277.33   -40968.696    2348.3187   -43317.015    1.0780066 
     350    198.89893    -40.97941    135084.97   -40847.856    2423.6931   -43271.549    1.2237486 
     400    202.61475   -250.72124     134961.9   -40789.715    2468.9725   -43258.687    1.3855449 
     450    203.35928   -2.5484091    134835.08   -40729.922    2478.0449   -43207.967    1.5513585 
     500    205.93214  -0.28194551    134736.45    -40649.01    2509.3967   -43158.407    1.7464427 
     550    211.42763   -54.764129    134704.74   -40527.463    2576.3623   -43103.825     1.900241 
     600    208.10242   -16.335279    134455.68   -40450.302    2535.8427   -42986.145    2.0841813 
     650    211.28436    19.258224    134304.62    -40468.72    2574.6164   -43043.337    2.2968592 
     700    215.68662   -99.505436    134207.62   -40472.132    2628.2604   -43100.392    2.4817233 
     750    217.65753   -128.58972    134151.88   -40455.709     2652.277   -43107.986    2.6653033 
     800    211.16687   -37.442649    134118.71   -40470.355    2573.1848    -43043.54    2.8248078 
     850    215.41605    78.475691    134066.62    -40427.77    2624.9634   -43052.734    2.9660808 
     900    218.31844   -163.20779    134137.08   -40406.365    2660.3305   -43066.696    3.1087512 
     950    216.20502    -218.2949    133887.91     -40417.6    2634.5774   -43052.177    3.2942507 
    1000     218.0456    -305.8579    133472.85   -40458.137    2657.0059   -43115.143    3.5518704 
    1050    214.93207   -84.780286    133312.79   -40457.396    2619.0658   -43076.462    3.7561129 
    1100    215.09821   -140.89467    133145.26   -40453.682    2621.0903   -43074.772    3.9255653 
    1150    213.72039   -52.670221    133037.45   -40433.681    2604.3008   -43037.981     4.057692 
    1200    215.43923    42.254779    133009.56   -40426.248    2625.2459   -43051.494     4.252147 
    1250    215.82945    25.715832    132988.11   -40436.263    2630.0009   -43066.264    4.4578952 
    1300     216.1016    1.5843337    132905.16   -40446.304    2633.3172   -43079.621    4.5943603 
    1350    215.69141   -285.97352    132718.62    -40430.78    2628.3188   -43059.099    4.7792222 
    1400    214.77526   -176.37099    132611.39   -40420.459     2617.155   -43037.614    5.0508647 
    1450    213.91835   -64.311797    132453.07   -40477.105    2606.7131   -43083.818    5.2070644 
    1500    216.55478   -113.49699    132427.36    -40466.96    2638.8395   -43105.799    5.3747611 
    1550    215.80868    91.884288    132457.07   -40453.352    2629.7478     -43083.1    5.5143097 
    1600    219.50158   -222.97647    132350.66   -40436.966    2674.7478   -43111.713    5.6647508 
    1650    217.87041   -121.36516    132201.37   -40458.301    2654.8711   -43113.172    5.8391537 
    1700     218.1392    -144.7254    132034.78   -40497.968    2658.1465   -43156.114    6.0194864 
    1750    215.83939    85.302463     132019.3   -40522.069     2630.122   -43152.191     6.154802 
    1800    218.76733    -37.34264    132078.88   -40521.544    2665.8006   -43187.344    6.2415818 
    1850    218.55427     -121.188    132089.38    -40508.34    2663.2043   -43171.544    6.4305864 
    1900    215.27062   -57.272849    132119.21    -40509.29    2623.1912   -43132.481    6.6010331 
    1950    216.06536    10.570909    132152.96   -40530.872    2632.8755   -43163.748    6.8724327 
    2000     215.7122   -91.313032     132122.9   -40572.051    2628.5722   -43200.623    7.0647183 
    2050    214.00739    -60.21329    131978.76   -40542.692     2607.798    -43150.49    7.2238014 
    2100    222.52914    10.154078    131945.67   -40494.821    2711.6403   -43206.461    7.3388451 
    2150    219.15199    10.765033    132055.85   -40452.633    2670.4879   -43123.121    7.4870853 
    2200     215.8102    55.634608    131955.64   -40507.365    2629.7663   -43137.131     7.699636 
    2250    217.62819    3.1405874    132020.89   -40480.961    2651.9196   -43132.881    7.8865251 
    2300    214.73593     22.32547    132023.75   -40514.967    2616.6757   -43131.643    8.0235839 
    2350     217.1771    65.425014    132113.73   -40512.175    2646.4228   -43158.598    8.1427169 
    2400    213.83715    -143.9603    132074.59   -40536.703    2605.7236   -43142.427    8.2416095 
    2450    217.65246    44.146501    132079.26   -40477.559    2652.2153   -43129.774    8.3598299 
    2500    216.94515    35.584814    132139.56   -40544.418    2643.5962   -43188.015    8.5112187 
    2550    216.43465     157.1492    132296.84   -40593.628    2637.3756   -43231.004    8.7243434 
    2600    213.41947   -149.34149    132155.48   -40603.382     2600.634   -43204.016    8.9130703 
    2650    217.54608    144.63152    132182.53   -40571.297     2650.919   -43222.216    9.0713807 
    2700    216.31429    76.433494    132213.63   -40593.467    2635.9089   -43229.376    9.1898239 
    2750    216.80181    156.11155    132370.99    -40592.63    2641.8496   -43234.479     9.330164 
    2800    212.43275    12.758638    132322.49   -40664.787    2588.6103   -43253.398    9.5142198 
    2850    212.25143   -2.6424269    132278.75   -40622.268    2586.4007   -43208.669    9.6508304 
    2900    212.65017    118.88597    132232.14   -40615.469    2591.2596   -43206.729    9.7531286 
    2950     219.1592    37.408001    132318.81   -40581.427    2670.5757   -43252.003     9.869048 
    3000    222.08378    239.39707    132458.52   -40554.019    2706.2134   -43260.232    9.9621664 
    3050    215.14358    144.49199    132656.34   -40561.695    2621.6432   -43183.338    10.137413 
    3100     217.6765    30.136934    132759.92   -40540.846    2652.5082   -43193.354     10.35133 
    3150    212.86132    -34.24519    132619.12   -40545.715    2593.8326   -43139.547    10.499352 
    3200    213.47229   -149.11124    132571.73   -40581.249    2601.2776   -43182.527    10.673581 
    3250    215.98791   -84.778683    132319.04   -40566.113    2631.9318   -43198.044    10.866574 
    3300    220.07668    14.206865    132433.79   -40575.288    2681.7557   -43257.043    11.040671 
    3350    217.76158   -54.468582    132438.81    -40630.87     2653.545   -43284.415    11.190242 
    3400    215.74437   -77.306756    132497.25   -40630.832    2628.9642   -43259.796    11.341844 
    3450    212.40852   -95.782795    132466.21    -40629.63    2588.3149   -43217.945    11.537941 
    3500    215.57949   -110.22614    132273.51   -40609.167     2626.955   -43236.122    11.736555 
    3550     213.4228   -1.3841758    132273.88   -40624.707    2600.6746   -43225.381    11.791191 
    3600    212.20245   -1.9914088    132194.77   -40620.697    2585.8039   -43206.501    11.904783 
    3650    216.67852    82.604459    132179.16    -40611.75    2640.3472   -43252.098    12.053857 
    3700    212.64354    60.177813    132157.52   -40665.608    2591.1788   -43256.787    12.185697 
    3750    213.95073      157.698    132264.76    -40612.38    2607.1077   -43219.488    12.271318 
    3800    215.93024    156.72976    132363.04   -40574.802     2631.229   -43206.031    12.264111 
    3850    217.87655     41.99006    132380.04    -40644.13     2654.946   -43299.076    12.402502 
    3900    220.08264    -95.61167    132425.27   -40627.135    2681.8284   -43308.963    12.597475 
    3950    216.58994    149.39053    132456.11   -40624.509    2639.2678   -43263.777    12.751578 
    4000    218.72401    13.767575    132489.03   -40622.592    2665.2726   -43287.865    13.059573 
    4050    215.80533   -42.991401    132450.07   -40602.478     2629.707   -43232.185    13.181081 
    4100    215.47235   -89.288461    132468.02   -40624.878    2625.6494   -43250.527    13.318735 
    4150     214.8289    9.9521694    132367.53   -40579.568    2617.8087   -43197.376    13.562045 
    4200    218.12283   -108.32049    132092.05   -40566.649    2657.9469   -43224.595    13.713928 
    4250    217.26055    83.559968    131975.92   -40548.825    2647.4397   -43196.264    13.878211 
    4300     215.7151   -125.34118    131907.96   -40568.179    2628.6075   -43196.787    13.965706 
    4350    216.19008   -58.784914    131916.57   -40597.073    2634.3953   -43231.468    13.990721 
    4400    213.47384    13.466455     131894.5   -40628.103    2601.2965     -43229.4    14.273342 
    4450    214.49924    41.686071    131829.66   -40637.936    2613.7915   -43251.727    14.398163 
    4500    213.85783   -12.539644    131773.54   -40630.709    2605.9756   -43236.685    14.501497 
    4550    216.03838   -149.73001    131638.56    -40628.41    2632.5468   -43260.957    14.644781 
    4600    213.14256    24.577751    131538.78   -40615.024    2597.2596   -43212.284    14.813442 
    4650    216.63899    121.24449    131464.74   -40611.763    2639.8656   -43251.629    14.979912 
    4700    215.46807    60.565719     131705.3   -40622.144    2625.5972   -43247.741    15.108137 
    4750    214.09761   -92.035146    131628.99   -40705.921    2608.8974   -43314.819     15.25377 
    4800     211.5659    136.12717    131625.81   -40649.598    2578.0471   -43227.645     15.21139 
    4850    212.59583   -98.695519    131660.42   -40672.503    2590.5974     -43263.1    15.314522 
    4900    213.31116   -9.8609014    131677.66   -40618.015    2599.3141   -43217.329    15.446011 
    4950    213.73249   -78.093465    131681.56   -40624.509    2604.4482   -43228.957    15.538259 
    5000    216.08957    144.29041    131781.96   -40598.485    2633.1705   -43231.656    15.648423 
    5050    215.35305   -109.12697    131787.17   -40610.559    2624.1957   -43234.755     15.77436 
    5100    214.38077   -171.38055    131735.73   -40685.314    2612.3479   -43297.662    15.922181 
    5150    212.80364   -155.38315    131541.36   -40682.078    2593.1297   -43275.208    16.166631 
    5200      216.401   -2.8108962    131519.75   -40643.549    2636.9655   -43280.515    16.404296 
    5250    216.80817    38.051361    131510.63   -40593.327    2641.9271   -43235.254    16.559997 
    5300    217.56313    89.519799    131617.43   -40579.258    2651.1267   -43230.385    16.670637 
    5350    209.65289    48.780443    131575.62   -40558.435    2554.7361   -43113.171    16.880193 
    5400    217.70013   -2.3569982    131594.27   -40608.926    2652.7961   -43261.722    17.062623 
    5450    212.32305   -150.87777    131582.85   -40667.493    2587.2734   -43254.767     17.29402 
    5500    210.04246   -92.186359    131496.86   -40693.703    2559.4832   -43253.186    17.436218 
    5550    215.84051   -99.122153    131385.78   -40649.438    2630.1357   -43279.574    17.579113 
    5600    213.28875    65.262529    131431.17   -40641.016     2599.041   -43240.057    17.765718 
    5650    214.06132   -155.49842    131232.42   -40608.919    2608.4552   -43217.374    17.823286 
    5700    216.44988    98.320878    131311.78   -40600.552    2637.5612   -43238.113    18.056887 
    5750    214.84496    114.11244    131418.34    -40568.44    2618.0044   -43186.444    18.354547 
    5800    219.90261    14.441053    131443.61   -40592.788    2679.6346   -43272.422     18.48783 
    5850    215.38239    64.255397    131386.78   -40549.048    2624.5532   -43173.601    18.682928 
    5900    217.93222    -202.7525    131399.56    -40531.61    2655.6243   -43187.234    18.681025 
    5950    219.66217   -8.9782564    131491.38   -40516.886    2676.7047    -43193.59    18.797758 
    6000    214.63229   -58.394049    131385.87   -40553.127    2615.4128    -43168.54    18.810236 
    6050    221.10454    82.381451    131520.84   -40528.273    2694.2808   -43222.554    19.041948 
    6100    218.08264   -9.1191534    131591.61   -40498.884    2657.4572   -43156.341    19.296449 
    6150    213.12073   -15.891331    131530.12   -40591.219    2596.9936   -43188.213    19.462935 
    6200    213.15651    71.339939    131561.96   -40577.958    2597.4297   -43175.388    19.675106 
    6250    214.64521   -110.26428    131504.54   -40592.989    2615.5702   -43208.559    19.752304 
    6300    214.12952    -70.07282    131467.32   -40569.644    2609.2863   -43178.931     19.90902 
    6350    217.76382   -120.32511    131445.72   -40526.231    2653.5722   -43179.803    20.013045 
    6400    219.55787   -9.8297328    131388.61   -40521.628    2675.4337   -43197.062      20.0905 
    6450    216.11701    225.62523    131599.06   -40542.465    2633.5049   -43175.969    20.195677 
    6500    213.80569   -106.02122    131618.51   -40581.514    2605.3403   -43186.854    20.453802 
    6550    216.53212   -33.199399    131568.16   -40632.258    2638.5633   -43270.822    20.727773 
    6600    213.33597   -96.525983    131499.68   -40628.369    2599.6165   -43227.985    21.158227 
    6650    211.08633    6.2601721    131321.92   -40633.969    2572.2034   -43206.172    21.311797 
    6700    214.16212   -80.290922    131125.38   -40581.184    2609.6835   -43190.867    21.335722 
    6750    214.86998     38.47922     131102.5   -40609.838    2618.3092   -43228.147    21.463454 
    6800    213.29598    92.632924    131030.95   -40596.624    2599.1291   -43195.753    21.569205 
    6850    219.46203    16.247749     131142.1   -40616.467    2674.2659   -43290.733    21.814436 
    6900    211.74878    128.94348    131274.36   -40637.399    2580.2757   -43217.674    21.895665 
    6950    217.42621    2.5431217    131464.06   -40563.176    2649.4583   -43212.634    22.041226 
    7000    218.32556   -139.00288     131553.5   -40545.458    2660.4174   -43205.875     22.34529 
    7050    216.23167     31.47417    131451.73    -40534.56    2634.9022   -43169.463    22.552149 
    7100    214.40727   -53.983676    131385.04   -40517.431    2612.6708   -43130.101    22.734864 
    7150    215.75837    82.177382    131406.09   -40521.179    2629.1347   -43150.313    22.955667 
    7200    214.54182    9.6648887     131422.6   -40550.016    2614.3104   -43164.327    23.102514 
    7250    215.49193     90.69636     131522.7   -40515.364     2625.888   -43141.252    23.184578 
    7300    218.41073   -105.67906    131466.23   -40480.395    2661.4552    -43141.85    23.316111 
    7350    215.54751   -55.866227    131357.77   -40515.355    2626.5653    -43141.92     23.41082 
    7400    216.19457    16.768944    131423.68    -40497.92    2634.4501    -43132.37    23.606305 
    7450    217.51532   -46.282383    131312.21   -40494.014    2650.5441   -43144.558    23.733879 
    7500    219.57979    17.657431     131511.8   -40463.191    2675.7008   -43138.892    23.907544 
    7550     220.6036    171.73187    131680.52   -40479.676    2688.1766   -43167.853    24.056347 
    7600    222.49996    92.891289     131716.2    -40442.46    2711.2848   -43153.745    24.185229 
    7650    219.99338   -16.026066    131812.67   -40496.454    2680.7407   -43177.195    24.564746 
    7700    219.30618     155.3712    131863.89   -40468.252    2672.3667   -43140.619    24.774428 
    7750    215.98852   -71.295309    131882.44   -40467.665    2631.9392   -43099.604    25.005853 
    7800    215.13427   -13.073736    131869.18   -40550.999    2621.5297   -43172.529     25.06189 
    7850    216.96493   -33.669622    131867.53   -40583.125    2643.8373   -43226.962     25.27339 
    7900     215.2302    -80.93772    131861.66   -40580.556    2622.6987   -43203.255    25.483462 
    7950    216.44113   -4.2790724    131745.21   -40548.693    2637.4545   -43186.148    25.630415 
    8000    220.49086   -21.470133    131638.42   -40574.066    2686.8027   -43260.869    25.807279 
    8050     217.5598   -8.3199183    131733.27   -40551.372    2651.0861   -43202.458     25.91999 
    8100    214.71729    113.58431    131740.17   -40601.869    2616.4486   -43218.317    26.016858 
    8150    217.01209    141.80399    131863.88   -40647.363     2644.412   -43291.775    26.116258 
    8200    215.90752   -47.362289    131882.25   -40677.277    2630.9522   -43308.229    26.270757 
    8250    214.03877   -57.847392    131788.66   -40720.171    2608.1805   -43328.351    26.518882 
    8300     211.6856    -71.22966    131688.95   -40723.449    2579.5058   -43302.955    26.569275 
    8350    213.10068    72.911156     131616.2   -40741.845    2596.7492   -43338.594    26.613148 
    8400     213.1683    98.018591     131663.5   -40691.626    2597.5733   -43289.199    26.763424 
    8450    212.70224    79.040923    131672.73   -40743.687    2591.8941   -43335.581    26.878986 
    8500    214.29593   -13.752727    131734.53   -40702.507     2611.314   -43313.821    27.110305 
    8550    218.08659    15.593264    131855.43   -40672.748    2657.5054   -43330.253    27.442711 
    8600    215.31709    39.834548     131867.3    -40664.04    2623.7575   -43287.797    27.703123 
    8650    219.10968    141.67742    132023.08   -40645.577    2669.9722    -43315.55    27.746349 
    8700    217.84429    39.803336    132009.32   -40611.433    2654.5528   -43265.986      27.8534 
    8750    211.98164    173.71494    132152.55   -40612.819    2583.1132   -43195.932    27.862481 
    8800    217.08283   -59.977163    132240.45   -40594.312     2645.274   -43239.586    28.012238 
    8850    216.82371   -169.69834    132292.63   -40589.212    2642.1165   -43231.328    28.165163 
    8900    217.49475   -95.194346    132207.77   -40582.925    2650.2935   -43233.219    28.224032 
    8950    212.57006   -35.461748    132167.19   -40618.108    2590.2835   -43208.392    28.275719 
    9000    216.45574    44.776182     132243.3   -40618.684    2637.6326   -43256.316    28.356588 
    9050    214.93219    -103.1811    132157.12   -40629.324    2619.0673   -43248.391    28.476878 
    9100    216.87238   -25.517668    132066.84   -40637.134    2642.7095   -43279.844    28.637045 
    9150    212.81986    -69.65913    132037.96   -40702.014    2593.3274   -43295.342    28.841592 
    9200    213.85734    94.691433    132003.94   -40708.342    2605.9697   -43314.311    28.947905 
    9250    213.40996   -180.80183    131978.77   -40702.696     2600.518   -43303.214    29.149202 
    9300    213.49978    -66.74363    131864.77   -40658.536    2601.6126   -43260.148    29.211493 
    9350    212.23216    119.45745    131773.38   -40641.831    2586.1659   -43227.997    29.299143 
    9400    210.07679   -95.772084    131716.96   -40645.533    2559.9016   -43205.434    29.501798 
    9450    211.35203    46.295292    131686.04   -40650.876    2575.4411   -43226.317    29.540648 
    9500    211.22221   -31.338034    131658.05   -40669.291    2573.8591    -43243.15    29.611743 
    9550      215.551    45.274702    131621.22   -40714.385    2626.6077   -43340.993    29.726989 
    9600    213.66609    27.016113     131707.3   -40741.088    2603.6391   -43344.727    30.009685 
    9650    213.54518    100.55995    131843.06   -40750.987    2602.1658   -43353.152    30.371706 
    9700    216.72149     80.18466    132001.38   -40687.336    2640.8709   -43328.207    30.578544 
    9750    216.31781    13.149618    132035.16   -40676.597    2635.9518   -43312.549    30.725339 
    9800    215.32266   -72.787483    131938.96   -40633.338    2623.8253   -43257.163    30.895261 
    9850    216.87808    113.64606    131908.03   -40654.363    2642.7791   -43297.142    31.079208 
    9900    214.84742    1.2366094    131799.54   -40660.827    2618.0343   -43278.861    31.267136 
    9950    218.44162    141.04452    131835.81   -40657.882    2661.8316   -43319.714    31.427879 
   10000    215.48202   -101.05417     131905.8   -40709.308    2625.7673   -43335.076    31.551031 
   10050    214.71251   -51.875775     131765.9   -40661.311    2616.3903   -43277.701    31.631587 
   10100    216.18057    44.388142     131746.6   -40604.788    2634.2795   -43239.068    31.807155 
   10150     213.3919   -179.36008    131629.51    -40629.97     2600.298   -43230.268    31.911231 
   10200    215.30197    100.87917     131714.1   -40633.185    2623.5733   -43256.758     31.95859 
   10250    212.78602   -71.211261    131647.01   -40688.471     2592.915   -43281.386    32.083717 
   10300    216.03536   -64.628414    131652.46   -40649.132      2632.51   -43281.642    32.168115 
   10350     217.0945   -3.9598519    131679.59   -40672.515    2645.4163   -43317.931    32.288574 
   10400    210.44704    45.691815    131748.81   -40664.531    2564.4132   -43228.944     32.28756 
   10450    215.11787    113.66673     131823.2   -40670.513    2621.3299   -43291.843    32.381226 
   10500    209.84864   -56.795323    131874.85   -40679.698    2557.1214   -43236.819    32.607199 
   10550    213.21907    40.447628    131898.68   -40703.978     2598.192    -43302.17    32.675321 
   10600    208.30038    76.875624     132146.4   -40719.551     2538.255   -43257.806    32.736407 
   10650    209.38459   -43.804394     132128.5   -40749.831    2551.4667   -43301.298    32.932249 
   10700    215.66367     102.6741    132131.37   -40716.249    2627.9808   -43344.229    32.964766 
   10750    214.75447   -16.286643    132194.93   -40701.221    2616.9016   -43318.123    33.134048 
   10800    213.28582   -102.20224    131986.77   -40738.803    2599.0053   -43337.809    33.244896 
   10850    216.87768    221.01835    132014.82   -40693.015    2642.7741    -43335.79     33.42473 
   10900    214.50289    84.628132    132015.76   -40691.033    2613.8361   -43304.869    33.600811 
   10950    214.76077   -102.48505    132166.42   -40710.685    2616.9784   -43327.664    33.932739 
   11000    211.58193   -76.042961     132133.1   -40716.586    2578.2425   -43294.829    34.055232 
   11050    213.30997   -249.22185    131901.16   -40730.194    2599.2996   -43329.494    34.206974 
   11100    213.44376    64.321917    131669.57   -40720.062    2600.9299   -43320.992    34.342426 
   11150    211.97054   -65.132357    131777.97   -40712.966    2582.9779   -43295.944    34.645167 
   11200    213.82605    20.020706       131700   -40723.024    2605.5883   -43328.612    34.686783 
   11250    213.40432   -80.304262       131696   -40675.907    2600.4493   -43276.356    34.718518 
   11300    214.44424    163.75083    131808.81   -40672.081    2613.1213   -43285.202    34.968678 
   11350    214.88427   -110.30064    131925.72   -40672.943    2618.4833   -43291.426    35.016754 
   11400    215.71925   -40.897136    131894.76   -40626.788     2628.658   -43255.446    35.186797 
   11450    213.33604   -169.04332    131908.23   -40663.088    2599.6174   -43262.706     35.25211 
   11500    214.49337    30.501979    131838.47   -40638.687      2613.72   -43252.407    35.413157 
   11550    220.10142    0.1795303    131795.99    -40658.36    2682.0572   -43340.417    35.537535 
   11600    218.44974    31.384559    131759.39   -40627.697    2661.9306   -43289.628    35.696016 
   11650     216.8141   -184.31963    131707.34    -40640.14    2641.9994    -43282.14    35.864155 
   11700     219.4788   -1.3057155    131716.36   -40599.167    2674.4702   -43273.637    36.001768 
   11750     215.2731   -55.633261    131816.72   -40647.198    2623.2215    -43270.42    36.280563 
   11800     213.9395    46.854348    131787.56   -40614.817    2606.9708   -43221.788    36.298636 
   11850    216.60997   -41.740263    131755.69   -40649.714    2639.5119   -43289.226     36.35915 
   11900    215.60011    34.869169    131797.72   -40670.108    2627.2063   -43297.314    36.567039 
   11950     212.8616    70.439515    131891.81   -40650.243     2593.836   -43244.079    36.748547 
   12000    212.26947    6.3253122    131895.48   -40673.744    2586.6205   -43260.365    36.880302 
   12050    213.68429    6.3247551    131898.68   -40683.257     2603.861   -43287.118    37.148727 
   12100     212.6041    70.126216    131916.29   -40643.217    2590.6982   -43233.916    37.234948 
   12150    215.53296   -91.689073    131841.72   -40640.382     2626.388    -43266.77    37.632942 
   12200    212.23086   -73.371519    131789.38   -40658.901      2586.15   -43245.051    37.923711 
   12250    216.39932    220.00602    131979.27   -40611.411     2636.945   -43248.356    38.164115 
   12300     213.9075   -35.920851    131950.13   -40614.282    2606.5809   -43220.862    38.369513 
   12350    214.01925    3.6074346    131906.81   -40597.697    2607.9426   -43205.639    38.633152 
   12400     218.1223   -164.37451    131946.87   -40596.572    2657.9405   -43254.513    38.767744 
   12450    215.46666   -143.57388    131812.02   -40617.868    2625.5801   -43243.448    39.056251 
   12500    218.92569    200.81779    131947.04   -40572.153    2667.7303   -43239.884    39.170018 
   12550    221.58782   -219.94549    131955.91   -40547.754    2700.1697   -43247.923    39.447662 
   12600    219.63728   -77.574622    132025.42    -40587.55    2676.4014   -43263.951    39.590766 
   12650    219.03561    124.92788    132040.51   -40548.855    2669.0698   -43217.925    39.751403 
   12700    216.43779   -168.24985    132060.07   -40616.746    2637.4138    -43254.16    39.839573 
   12750    213.65048   -46.917797     131826.2    -40610.67     2603.449   -43214.119    39.947072 
   12800    216.56018    3.1711396    131858.93   -40575.669    2638.9052   -43214.574    40.306508 
   12850    214.13987    117.58558    131799.45   -40579.028    2609.4124   -43188.441    40.213785 
   12900      216.115    47.813733    131931.45   -40605.524    2633.4805   -43239.005    40.356288 
   12950    217.27172    30.881019    131990.71   -40614.159    2647.5758   -43261.735    40.554825 
   13000    213.95798   -124.65672    132000.62   -40669.009     2607.196   -43276.205    40.755143 
   13050    217.88237    42.655985    131894.32   -40640.997    2655.0169   -43296.014    40.761719 
   13100     215.8719   -25.921204    131911.01   -40667.285    2630.5181   -43297.803    40.876867 
   13150    216.05989    64.856409    131915.34   -40656.591    2632.8089     -43289.4    41.054368 
   13200    215.42467    104.66403    131950.24   -40641.187    2625.0684   -43266.255    41.116781 
   13250    218.11543    53.870265    131964.96   -40601.842    2657.8568   -43259.699     41.33383 
   13300    213.64478   0.31648135    131987.34   -40618.738    2603.3795   -43222.118    41.476285 
   13350    215.65885   -84.098833    131972.61   -40617.301     2627.922   -43245.223    41.806131 
   13400    214.49224   -62.996673    131857.73   -40633.308    2613.7062   -43247.014    41.899877 
   13450    215.49864   -102.32227    131857.81   -40695.263    2625.9697   -43321.233    42.042847 
   13500    213.36609   -217.63577    131663.86   -40739.911    2599.9834   -43339.894     42.18027 
   13550    212.77737    115.32076    131714.33   -40764.355    2592.8096   -43357.165    42.289245 
   13600    212.76473   -202.33094    131646.49   -40767.673    2592.6555   -43360.328    42.511957 
   13650    216.02339   -19.698504    131690.73    -40725.71    2632.3642   -43358.074    42.674278 
   13700    210.41702    13.032481    131651.37   -40773.113    2564.0475    -43337.16    42.805031 
   13750    212.78788   -91.535575    131578.33   -40741.462    2592.9377     -43334.4    43.025409 
   13800    212.85787   -44.789076    131438.37   -40813.463    2593.7905   -43407.253    43.209994 
   13850    211.31315   -81.814072    131341.69   -40811.863    2574.9673    -43386.83    43.551717 
   13900    208.37277   -13.457982    131198.05   -40803.498    2539.1371   -43342.635     43.72143 
   13950    212.71128    60.112583    131236.22   -40815.028    2592.0043   -43407.032    43.607443 
   14000    213.14352    67.708426     131354.1   -40868.678    2597.2713   -43465.949    43.700074 
   14050    210.35383    82.186938    131425.17   -40925.763    2563.2774    -43489.04    43.846704 
   14100    209.17128     80.13037    131590.17   -40916.785    2548.8674   -43465.653    44.041542 
   14150    213.19219    112.48248    131639.28   -40798.042    2597.8645   -43395.907    44.334564 
   14200     212.1071    52.282183    131564.38   -40864.233     2584.642   -43448.875    44.313866 
   14250    213.21536   -40.182373    131561.77   -40874.886    2598.1468   -43473.033    44.444501 
   14300    214.68983   -6.9055691    131588.37   -40855.916     2616.114    -43472.03    44.593064 
   14350    214.51649    72.276514    131645.11   -40872.823    2614.0017   -43486.824    44.778457 
   14400    210.36346   -7.6686701    131746.18    -40861.75    2563.3948   -43425.145    44.806023 
   14450     211.5947   -134.41961    131739.85   -40802.884    2578.3981   -43381.282    44.850249 
   14500    210.44554    87.510982     131723.1   -40813.732    2564.3949   -43378.127    44.927668 
   14550    213.85213   -11.041065    131759.46   -40814.221    2605.9061   -43420.127    45.002543 
   14600    213.43392    281.91413    131748.72   -40794.257      2600.81   -43395.067    45.193695 
   14650    212.43971    31.059517    131823.99   -40781.655     2588.695    -43370.35     45.60266 
   14700    210.73576    -71.45893    131835.49    -40805.52    2567.9315   -43373.451    45.889232 
   14750    215.78451    128.99507    131953.62   -40797.548    2629.4532   -43427.001    46.070787 
   14800     213.7757    26.495641    132055.16   -40796.119    2604.9749   -43401.093      46.2865 
   14850    211.65071   -71.115925    132056.41   -40791.943    2579.0806   -43371.024    46.659835 
   14900     213.1547     55.24279    131929.61   -40781.403    2597.4076   -43378.811    46.867053 
   14950    217.55126   -103.21928    131829.87   -40750.324    2650.9821   -43401.306    47.015937 
   15000    215.14342    43.148424    131822.32   -40752.404    2621.6412   -43374.045    47.080989 
   15050    218.25514    36.780621    131914.62   -40726.889    2659.5592   -43386.449    47.150359 
   15100    214.34689   -148.93266    131797.11   -40724.072    2611.9351   -43336.007    47.282259 
   15150    215.58992    26.811392     131782.3   -40779.177    2627.0821   -43406.259    47.392905 
   15200    217.48318    3.5116266    131746.56    -40762.65    2650.1525   -43412.802    47.436257 
   15250    219.15857    152.68088    131740.13    -40736.29    2670.5681   -43406.858    47.773721 
   15300    217.50416    104.61322    131807.36   -40743.937    2650.4082   -43394.345     47.99451 
   15350    214.59881    35.001817    131985.89   -40730.202    2615.0048   -43345.207    48.141601 
   15400    215.22004   -133.25531    131993.07   -40751.835    2622.5748    -43374.41    48.159182 
   15450    215.28095   -50.458969    131876.35   -40715.155    2623.3171   -43338.472    48.274422 
   15500    217.28777   -27.697716    131863.54   -40700.131    2647.7713   -43347.902    48.359757 
   15550    215.52105    70.378416    131834.49   -40710.737    2626.2429    -43336.98    48.388578 
   15600    214.51036    191.53726    131968.76    -40715.76    2613.9271   -43329.687     48.54728 
   15650    211.70751    75.336789    131956.69   -40757.592    2579.7728   -43337.365     48.66577 
   15700    214.84621   -55.888747    131785.48   -40752.424    2618.0195   -43370.443    48.734291 
   15750    212.70971    5.1122298    131853.67   -40755.793    2591.9851   -43347.778    48.795663 
   15800    218.03573    182.91837    131965.72   -40726.196    2656.8856   -43383.081    49.034837 
   15850    212.74917    138.35022    132159.26   -40716.117     2592.466   -43308.583    49.230542 
   15900    215.20551    22.821463    132097.99   -40750.993    2622.3978   -43373.391     49.31884 
   15950    214.39375    -107.0978    132082.49   -40783.951    2612.5061   -43396.457    49.588727 
   16000    214.02196   -49.320706    131931.02    -40738.46    2607.9756   -43346.436    49.648324 
   16050    218.01096    117.94799    131985.41   -40705.472    2656.5838   -43362.056    49.654911 
   16100    217.33223    227.87656     132188.6    -40687.87    2648.3131   -43336.183    49.890259 
   16150    216.58693    42.974479    132176.17   -40710.394    2639.2312   -43349.626    50.144933 
   16200    215.27238   -77.869545    132084.73   -40721.926    2623.2127   -43345.138    50.361637 
   16250    212.69497   -209.96355    131903.46   -40716.388    2591.8055   -43308.193    50.382493 
   16300    214.41208    77.180126    131842.45   -40727.994    2612.7295   -43340.723    50.553774 
   16350    212.55143   -64.359556    131877.21   -40752.613    2590.0564    -43342.67    50.588038 
   16400    213.75199    11.097321    131798.81   -40766.215    2604.6859   -43370.901    50.770618 
   16450    213.68461   -55.959521    131756.78   -40728.572    2603.8649   -43332.437    50.905695 
   16500    216.91441   -33.594223    131720.84   -40674.248    2643.2217    -43317.47    51.155192 
   16550    215.58703    33.270508    131746.49   -40630.204    2627.0469   -43257.251    51.422824 
   16600    217.45569   -51.274781    131745.12   -40590.327    2649.8175   -43240.144    51.507106 
   16650    214.10986    91.620755    131779.18   -40618.627    2609.0467   -43227.673    51.775105 
   16700     216.0632   -43.320758    131850.65   -40672.489    2632.8493   -43305.338    51.927728 
   16750    214.62788   -21.082704    131812.99   -40681.303    2615.3591   -43296.662    52.053142 
   16800     213.3047    3.9574706    131711.15   -40736.653    2599.2355   -43335.888    52.108066 
   16850     215.4644    72.561626    131758.35   -40706.444    2625.5525   -43331.997    52.190869 
   16900    214.11945   -69.116906    131815.06    -40698.51    2609.1635   -43307.674    52.328387 
   16950     210.0776   -60.091716    131647.53   -40782.316    2559.9114   -43342.227    52.551717 
   17000    213.04738    124.64574    131611.49   -40795.876    2596.0998   -43391.975     52.73651 
   17050    214.24227    31.924755    131541.77   -40778.628    2610.6602   -43389.289     52.77503 
   17100    215.42674    107.33714    131708.37   -40734.944    2625.0937   -43360.038    52.797822 
   17150    211.52575   -100.08824    131683.38   -40739.215     2577.558   -43316.773    52.831035 
   17200    214.18517    56.917398    131857.99   -40723.485    2609.9645   -43333.449     52.98599 
   17250    210.75912    73.512724    131745.96   -40741.272    2568.2161   -43309.488    52.967812 
   17300    216.63854    118.37978    131737.12   -40732.423      2639.86   -43372.283    53.270472 
   17350    212.31095    58.723711    131671.45   -40741.804     2587.126    -43328.93    53.452488 
   17400    212.25366   -74.181443    131577.47   -40698.271    2586.4279   -43284.699    53.698371 
   17450    215.44928    196.60957    131581.77   -40681.817    2625.3683   -43307.185    53.819722 
   17500    217.49867    150.23371    131710.53   -40697.172    2650.3413   -43347.513    53.866607 
   17550    212.77711    52.946028    131808.65   -40685.405    2592.8065   -43278.211    54.208926 
   17600    216.03112    300.63796    131951.83   -40695.137    2632.4583   -43327.596    54.307618 
   17650    216.23586   -123.91973    132016.64   -40723.886    2634.9532   -43358.839    54.515149 
   17700    213.83784    91.201795    132063.79   -40726.448     2605.732    -43332.18    54.598614 
   17750    214.45622   -172.07777     132117.4   -40715.314    2613.2673   -43328.582     54.65327 
   17800    210.46966   -39.790869    131983.27   -40750.699    2564.6889   -43315.388    54.713567 
   17850    212.09637   -25.119437    131926.18   -40747.218    2584.5112    -43331.73    54.761121 
   17900    209.42585   -58.205594    131911.31   -40780.322    2551.9694   -43332.291    54.841753 
   17950    214.88327    290.37377    132030.88   -40774.935    2618.4711   -43393.406    55.143164 
   18000    215.75138     227.7549    132111.81   -40744.978    2629.0495   -43374.028    55.250795 
   18050    218.18836  -0.11855477    132267.85   -40777.363    2658.7455   -43436.108    55.361074 
   18100    215.78998   -62.641603    132305.72   -40780.807    2629.5199   -43410.327     55.59962 
   18150    209.76557   -110.75585    132108.81   -40821.461    2556.1092   -43377.571    55.811035 
   18200    211.24529    39.965566    131997.44   -40808.922    2574.1404   -43383.063    55.769837 
   18250    210.17648    -20.74253    131914.13   -40781.085    2561.1163   -43342.201    55.848407 
   18300    214.57134   -38.225255     131853.4    -40777.66    2614.6701    -43392.33    55.972569 
   18350    207.95152    181.49174    131860.93    -40818.81    2534.0039   -43352.814     56.13247 
   18400    214.34213    122.25117    131978.74   -40828.681    2611.8771   -43440.558    56.345368 
   18450    210.23984    96.684983    131996.55    -40802.44    2561.8884   -43364.328    56.456469 
   18500    211.21748    -206.9503    131934.53    -40792.38    2573.8014   -43366.181    56.505785 
   18550    213.03224     5.000145    131743.99   -40777.852    2595.9153   -43373.767    56.545803 
   18600    210.26646     139.0873    131839.97   -40781.848    2562.2128    -43344.06    56.616609 
   18650    213.37256    1.4759963    132013.17   -40795.779    2600.0624   -43395.842    56.798344 
   18700    208.32787    20.820512    131827.23    -40799.48    2538.5899    -43338.07    56.964937 
   18750    213.99115   -52.619548     131739.8   -40791.255    2607.6002   -43398.855    57.213017 
   18800    215.41587    160.18639    131829.87   -40744.858    2624.9611   -43369.819    57.301517 
   18850     215.4269    148.80758    131920.14   -40722.726    2625.0956   -43347.821    57.409761 
   18900    212.43525    39.135012    131986.34   -40689.859    2588.6406   -43278.499    57.545703 
   18950     210.8189   -180.86522    131882.06   -40731.365    2568.9446   -43300.309    57.937542 
   19000    212.32512   -88.062402    131777.45   -40686.941    2587.2987   -43274.239    58.170912 
   19050    215.33138   -66.301783     131734.8   -40690.861    2623.9316   -43314.793    58.291807 
   19100     213.7204   -78.617779       131458   -40700.959    2604.3009    -43305.26    58.366701 
   19150    211.85544    250.32154    131549.28   -40697.211    2581.5754   -43278.786    58.478275 
   19200    212.25035    97.268747    131667.86   -40718.572    2586.3876   -43304.959    58.765119 
   19250    215.50747    -200.8426    131584.81   -40687.687    2626.0774   -43313.765    59.103301 
   19300     211.1723    156.89334    131521.75   -40702.757     2573.251   -43276.008    59.282047 
   19350    212.46801   -89.237655     131567.9   -40700.017    2589.0398   -43289.057     59.39179 
   19400    212.59882    137.65087    131482.63   -40712.376    2590.6339    -43303.01    59.548075 
   19450    213.17539    73.808174    131588.79    -40710.61    2597.6597    -43308.27     59.77248 
   19500    219.16641    116.04417    131702.15   -40648.043    2670.6636   -43318.706     59.98381 
   19550    219.37629    83.408248    131801.57   -40626.836    2673.2211   -43300.057    60.224073 
   19600    214.37464    65.760911    131825.14     -40662.5    2612.2732   -43274.774    60.136208 
   19650    215.53138   -22.114711    131823.43    -40651.01    2626.3687   -43277.379     60.14879 
   19700    216.56605    124.84602    131765.48   -40625.705    2638.9768   -43264.682    60.357143 
   19750    218.47357   -55.404436    131843.76   -40635.475     2662.221   -43297.696     60.71895 
   19800    214.90522   -105.60691    131759.38   -40609.051    2618.7386   -43227.789    60.751589 
   19850    215.29725   -114.89454     131748.4   -40635.859    2623.5157   -43259.375    60.912302 
   19900    219.00125    39.686226    131718.62   -40631.264     2668.651   -43299.915    61.081415 
   19950    214.19741    123.17906    131774.51   -40592.974    2610.1136   -43203.087    61.227802 
   20000    214.68469   -30.274878     132025.8   -40654.233    2616.0514   -43270.285    61.363721 
   20050     216.3265   -80.394539     131973.8   -40656.555    2636.0578   -43292.613    61.397929 
   20100    212.60756   -101.06773    131754.02   -40686.923    2590.7403   -43277.664    61.768542 
   20150    215.25135   -24.124747    131812.49   -40729.637    2622.9565   -43352.593     61.90795 
   20200    215.35826    34.339758    131889.06    -40680.31    2624.2592   -43304.569    62.112671 
   20250     212.4628    97.057007       132017   -40659.533    2588.9763    -43248.51     62.41035 
   20300    217.00282   -58.343072    131961.26   -40656.696    2644.2991   -43300.995     62.51198 
   20350    217.63007   -50.576902    131692.96   -40647.836    2651.9424   -43299.779    62.708502 
   20400    212.21701   -19.187169       131711   -40680.542    2585.9813   -43266.523    63.105628 
   20450     213.1193   -172.78703    131603.78   -40702.593    2596.9762   -43299.569    63.175391 
   20500    217.62941    74.866285    131654.43   -40686.171    2651.9343   -43338.106    63.220098 
   20550    215.46182    64.511843    131769.04   -40693.585     2625.521   -43319.106    63.321701 
   20600     216.2316    90.552292    131903.97    -40632.68    2634.9013   -43267.581    63.501432 
   20650    211.69438    28.189559    131870.74   -40671.735    2579.6128   -43251.348    63.692409 
   20700    217.91382    35.151447    131906.25   -40623.361       2655.4   -43278.761     63.84198 
   20750    220.46021    25.408424    131910.09   -40590.418    2686.4293   -43276.847    64.061559 
   20800     214.9223    15.810487    131856.08   -40683.559    2618.9468   -43302.506    64.280762 
   20850    216.68088    124.33523    131865.68   -40631.158     2640.376   -43271.534    64.507147 
   20900    215.12731   -101.39364    131926.31   -40669.837    2621.4449   -43291.282     64.64674 
   20950    212.92972    -28.59589    131915.15   -40683.778    2594.6661   -43278.444    64.780882 
   21000    213.63369    96.149893     132060.2   -40678.451    2603.2443   -43281.696    65.180733 
   21050    211.29929     17.75638    131966.84   -40742.553    2574.7984   -43317.351    65.271515 
   21100    211.33711    6.9406695    131783.53   -40715.219    2575.2592   -43290.478    65.434069 
   21150    212.73935   -70.301547    131759.88   -40695.688    2592.3463   -43288.035     65.52923 
   21200    209.94397    119.99189    131777.87   -40687.843     2558.283   -43246.126    65.778121 
   21250    212.55095    102.91436    131762.38   -40676.565    2590.0506   -43266.616    65.834579 
   21300    213.61012    200.49656     131623.4   -40652.923    2602.9571    -43255.88      66.0898 
   21350    213.11252    57.141261    131852.67   -40611.725    2596.8936   -43208.619    66.340589 
   21400    216.11634    -70.92613    131854.92   -40617.613    2633.4967   -43251.109    66.240189 
   21450     213.6322     48.72821    131811.17   -40637.976    2603.2262   -43241.202    66.449385 
   21500    216.88093    34.826854    131981.62   -40636.226    2642.8138   -43279.039    66.731645 
   21550    215.25184    40.277157    132114.57   -40614.813    2622.9624   -43237.775    66.885502 
   21600    218.45224   -12.191078    132136.61   -40571.817     2661.961   -43233.778     67.01639 
   21650    216.85609    90.353039    132212.13   -40596.542     2642.511   -43239.053    67.223563 
   21700    217.47502     78.15637    132357.44   -40614.717    2650.0531    -43264.77    67.393875 
   21750    213.10064    82.559914    132473.25   -40644.691    2596.7488    -43241.44     67.62338 
   21800    216.34826    44.294574     132542.6   -40636.845    2636.3229   -43273.168    67.822582 
   21850    214.75525   -178.22022    132623.92   -40663.449    2616.9112    -43280.36    68.020544 
   21900    212.82045   -212.40186    132346.25   -40717.567    2593.3345   -43310.901    68.007471 
   21950    210.77399    37.692857    132280.57   -40720.489    2568.3973   -43288.887    68.168304 
   22000    212.48223    164.63942    132310.12   -40720.767    2589.2131   -43309.981    68.022739 
   22050     221.4282   -39.998755    132280.92   -40673.979    2698.2247   -43372.203    68.148835 
   22100    215.65953    142.52743    132163.32   -40671.096    2627.9304   -43299.027    68.144225 
   22150    219.20963   -47.042302    132176.52   -40639.488    2671.1903   -43310.679    68.193608 
   22200    216.08675   -2.2456722    132201.73   -40696.299    2633.1362   -43329.435    68.455674 
   22250    217.43355    0.6600723    132189.34   -40673.512    2649.5477   -43323.059    68.631755 
   22300    218.36484   -63.430491    132213.02   -40684.298     2660.896   -43345.194    68.683268 
   22350    214.75334    60.916537    132398.73   -40691.303    2616.8879   -43308.191    68.984874 
   22400    214.24376   -11.714041    132435.14   -40758.273    2610.6784   -43368.951      68.9237 
   22450    214.30683    26.898676     132370.2   -40759.317    2611.4469   -43370.764    69.059964 
   22500    210.98609   -43.303801    132252.73   -40799.259    2570.9818   -43370.241    69.147748 
   22550    214.61642   -98.529839    132228.93   -40781.569    2615.2195   -43396.788    69.348588 
   22600    213.84928   -63.469316     132150.7    -40744.63    2605.8714   -43350.502    69.539075 
   22650    213.81787    85.941267     132161.4   -40801.734    2605.4887   -43407.222    69.626549 
   22700    215.98516    5.9390045    132286.45   -40763.858    2631.8983   -43395.756    69.904939 
   22750    210.97029    171.88105    132343.69   -40741.178    2570.7893   -43311.967     69.96562 
   22800    219.69896    28.670652    132362.12   -40702.987     2677.153    -43380.14    70.032709 
   22850    216.45048   -126.28119    132449.18   -40720.826    2637.5684   -43358.394    70.180999 
   22900    217.11684   -138.55865    132324.65   -40746.776    2645.6884   -43392.464    70.303037 
   22950    211.45661    93.926373    132360.43   -40730.089    2576.7155   -43306.805     70.33777 
   23000    214.66954   -86.218008    132383.98   -40753.836    2615.8667   -43369.702    70.483451 
   23050    211.69847   -87.822742    132318.82   -40729.272    2579.6626   -43308.934    70.577651 
   23100    217.34852    8.5223921    132394.74   -40722.881    2648.5115   -43371.392    71.014133 
   23150     215.0199   -25.231417    132305.39   -40730.752    2620.1361   -43350.888    71.191022 
   23200    217.21787   -9.3940939    132227.11   -40687.454    2646.9195   -43334.373     71.26481 
   23250    218.11993    91.456508    132321.68   -40648.667    2657.9116   -43306.579    71.488294 
   23300    218.65227   -24.155058    132477.72   -40685.936    2664.3985   -43350.335    71.534436 
   23350     215.8845   -52.100319     132356.6   -40677.767    2630.6717   -43308.439    71.483839 
   23400    215.32542   -46.640738    132159.27   -40692.588     2623.859   -43316.447    71.586776 
   23450    219.71743   -12.296859    132186.95    -40670.49    2677.3781   -43347.869    71.749178 
   23500    220.49725    10.468669    132130.11   -40650.937    2686.8806   -43337.818    71.917161 
   23550    216.86762     45.95567    132213.17   -40649.028    2642.6516    -43291.68    71.915282 
   23600    212.71967   -64.728723    132147.76    -40691.24    2592.1065   -43283.347    71.983652 
   23650    215.85374    94.876954    132109.36   -40667.785    2630.2968   -43298.082    72.097776 
   23700    214.87625    124.95973    132159.49   -40655.902    2618.3856   -43274.288    72.157972 
   23750    220.85069   -87.566572    132183.78   -40688.542    2691.1875   -43379.729    72.393227 
   23800    217.49204    89.356033       132098   -40676.396    2650.2605   -43326.656    72.408812 
   23850    223.15411    13.313794    132271.52   -40645.177    2719.2558   -43364.432    72.597399 
   23900    220.14146   -170.05314    132235.05   -40687.196    2682.5451   -43369.741    72.649318 
   23950    214.55304   -53.583467    132067.58   -40696.655    2614.4471   -43311.102    72.863491 
   24000    218.14941   -78.106554    132164.28   -40695.119    2658.2709    -43353.39    73.314229 
   24050     214.5059   -66.047528    131959.28    -40702.86    2613.8727   -43316.733    73.521409 
   24100     209.2024    14.619006    131955.44   -40766.769    2549.2466   -43316.016    73.654238 
   24150    215.81317   -73.129621    132012.82   -40739.393    2629.8026   -43369.195    73.927434 
   24200    209.51053    43.089074    131954.28   -40749.843    2553.0014   -43302.844    73.958146 
   24250    215.80915   -27.492675    131968.15   -40735.145    2629.7535   -43364.899    74.054395 
   24300    212.88097   -42.904883    131958.63   -40709.754    2594.0721   -43303.826    74.358212 
   24350    210.84718   -78.567997    131968.21   -40728.795    2569.2892   -43298.084    74.669404 
   24400     213.1816    61.913551    131994.84   -40709.955    2597.7353    -43307.69    74.840865 
   24450    212.75447   -197.57923    132030.03   -40761.199    2592.5305   -43353.729    74.758965 
   24500    212.89732    88.796884    132159.13   -40763.275    2594.2712   -43357.546    74.817507 
   24550    213.33935   -102.00665    132150.47   -40745.409    2599.6577   -43345.067    74.868111 
   24600    216.26057    101.31064    132103.22   -40713.647    2635.2543   -43348.902    74.721787 
   24650    216.93034    128.57651    132252.38   -40715.949    2643.4158   -43359.365    75.005839 
   24700    211.95308    -24.72583    132303.16   -40723.004    2582.7651   -43305.769    75.224196 
   24750    219.93746    24.636753     132279.1    -40670.35    2680.0592   -43350.409    75.466967 
   24800    219.36089     115.4512    132408.69   -40656.127    2673.0334   -43329.161    75.633214 
   24850     215.7372    22.454837    132385.61    -40662.72    2628.8768   -43291.596     75.72427 
   24900    218.62779   -54.294335       132520   -40698.214    2664.1002   -43362.315    75.842985 
   24950    215.70406    14.490204    132547.12   -40717.818    2628.4729   -43346.291    76.019525 
   25000    215.95333   -70.995983    132538.55   -40708.618    2631.5104   -43340.128    76.205238 
   25050    216.68026   -64.054829    132466.39   -40692.603    2640.3684   -43332.971    76.251691 
   25100    215.27883   -93.070983    132421.69   -40716.126    2623.2913   -43339.417    76.425362 
   25150    215.82065   -67.707643    132327.66   -40697.395    2629.8937   -43327.288    76.365244 
   25200      214.954    -25.01668    132275.76   -40707.385     2619.333   -43326.718    76.693405 
   25250    218.44528    77.961911    132220.16   -40670.398    2661.8762   -43332.274     76.60473 
   25300    215.35987    39.130756    132259.79   -40682.788    2624.2788   -43307.067    76.891633 
   25350     219.7779   -67.728633    132174.38   -40637.688    2678.1149   -43315.803    76.863313 
   25400    219.16581    -55.13137    132134.14   -40639.111    2670.6563   -43309.767    76.899052 
   25450    222.02401   -4.2007738    132143.58    -40651.08    2705.4851   -43356.565    76.749499 
   25500    218.08447   -91.566744     132114.5   -40647.333    2657.4795   -43304.813    76.762702 
   25550    217.35267   -71.043751    132046.99   -40675.981    2648.5622   -43324.543    76.908539 
   25600    215.67999    75.190318    131988.39   -40679.231    2628.1796    -43307.41    76.873689 
   25650    218.88078     -0.84018    132178.29   -40636.793     2667.183   -43303.976    77.065402 
   25700    217.64779   -56.239979    132071.74   -40674.204    2652.1583   -43326.362    77.252777 
   25750    214.01006    104.62527    132075.65    -40713.79    2607.8306    -43321.62     77.43515 
   25800    216.17009    -117.9874    132001.97    -40722.83    2634.1517   -43356.982     77.51357 
   25850    218.02175    120.25906    132006.16   -40710.495    2656.7152   -43367.211    77.828365 
   25900    214.75566    27.326342    131984.32   -40727.408    2616.9161   -43344.324    78.060267 
   25950    215.49905    33.698793    131993.36   -40685.048    2625.9748   -43311.023    78.109623 
   26000    211.93864   -63.222851    131943.99   -40766.635    2582.5893   -43349.224    78.072362 
   26050    214.10195   -16.100368     131877.7   -40801.694    2608.9504   -43410.644    78.095541 
   26100    216.63963   -121.51254    131872.34   -40798.527    2639.8734   -43438.401    78.300396 
   26150     211.5369    18.712477    131807.81    -40807.44    2577.6938   -43385.133    78.333704 
   26200    217.79885   -203.48662    131808.26   -40750.279    2653.9991   -43404.278    78.452067 
   26250    217.02817    66.924472    131821.62   -40756.954     2644.608   -43401.562    78.635201 
   26300    215.37293    72.293634     132051.8   -40763.937    2624.4379   -43388.375      78.9103 
   26350    214.30592    87.741907    132013.59   -40748.175    2611.4358   -43359.611    78.971641 
   26400    216.53025   -11.591062    132009.48   -40773.022    2638.5406   -43411.563    79.079946 
   26450    211.01475   -1.9762479    132098.14   -40803.646    2571.3311   -43374.977     79.28145 
   26500    211.62976    45.977439    132131.91   -40781.866    2578.8254   -43360.691     79.50039 
   26550    214.20592   -22.442493       132186   -40780.754    2610.2173   -43390.971    79.692359 
   26600    212.01625   -58.479313    132174.76   -40791.469    2583.5349   -43375.004      79.8896 
   26650    212.63861     -123.902    132041.24   -40747.757    2591.1188   -43338.876    79.972589 
   26700    214.35349    132.65081    132064.56   -40754.796    2612.0154   -43366.811    80.369807 
   26750     212.7893   -17.288597    132109.25   -40781.268    2592.9549   -43374.223    80.536112 
   26800    214.46833    138.28897    132291.96   -40727.651    2613.4149   -43341.066    80.644169 
   26850    216.58852    7.8747612    132341.84   -40747.641    2639.2506   -43386.891    80.743637 
   26900    216.76031   -66.518504    132248.83   -40698.979    2641.3439   -43340.323    80.802295 
   26950    213.51128   -72.996553    132169.82   -40687.658    2601.7526   -43289.411    80.864532 
   27000    216.75641   -175.15163     132061.9   -40675.218    2641.2964   -43316.515    80.945742 
   27050    217.75955    -41.36433    132052.54   -40602.038    2653.5202   -43255.559    81.479302 
   27100    221.49754   -31.315289    132061.73   -40586.476    2699.0697   -43285.546    81.775925 
   27150    219.65279   -119.20983    131938.96   -40606.837    2676.5903   -43283.427    81.606032 
   27200    220.02506    84.565075    131949.29   -40621.161    2681.1267   -43302.288    81.604503 
   27250    214.53853   -41.409401     131997.5   -40713.663    2614.2703   -43327.933    81.664904 
   27300    216.76923    147.03262    132066.59   -40749.857    2641.4526   -43391.309    81.802185 
   27350    213.38917    93.941741    132162.43   -40772.332    2600.2647   -43372.597    82.098191 
   27400    217.44936   -147.11698     132035.4   -40759.999    2649.7404   -43409.739    82.183523 
   27450     218.6856    52.411118    132090.84   -40730.519    2664.8046   -43395.324    82.439273 
   27500    213.54613   -84.487919    132032.36   -40704.587    2602.1774   -43306.765     82.64026 
   27550    209.05185   -133.16791    131991.47   -40691.697    2547.4121   -43239.109      82.5079 
   27600    213.35337     95.72089    131945.71   -40664.664    2599.8284   -43264.492    82.642525 
   27650     219.3384   -143.89685    132013.42   -40685.343    2672.7594   -43358.103     82.79104 
   27700    215.78575   -55.217084    132128.71   -40680.143    2629.4684   -43309.611    82.891391 
   27750    215.83462    75.215751    132060.94    -40651.43    2630.0639   -43281.494    83.032349 
   27800    216.07179    17.064105    132036.91   -40677.581     2632.954   -43310.535    83.318112 
   27850    219.30176   -94.897369    132037.27   -40653.469    2672.3129   -43325.782    83.478863 
   27900    214.88625    -79.96776    131945.41    -40695.45    2618.5075   -43313.957    83.414736 
   27950     218.0421    -67.25618    131939.23   -40735.034    2656.9632   -43391.997    83.345737 
   28000    215.42535   -127.46435    131820.29   -40762.599    2625.0766   -43387.676     83.32794 
   28050    214.94473   -81.743549    131868.52   -40738.772    2619.2201   -43357.992    83.441758 
   28100    218.91286    -97.96601    131847.32   -40703.519    2667.5739   -43371.093    83.677132 
   28150    215.06012   -29.962643    131890.63   -40710.932    2620.6261   -43331.558    83.780248 
   28200    211.25615    86.218786     131873.1   -40712.454    2574.2727   -43286.727    83.991635 
   28250    211.05708   -18.514605    131855.66   -40739.501    2571.8469   -43311.348    84.027487 
   28300    213.16276    104.02884    131840.12   -40734.891    2597.5058   -43332.397    83.979981 
   28350    209.13238   -37.105907     131821.1   -40748.879    2548.3934   -43297.272    84.253156 
   28400    219.03457   -61.103799    131846.88    -40665.95     2669.057   -43335.007    84.415659 
   28450     217.1316    10.840429    131786.43    -40668.06    2645.8683   -43313.928      84.5786 
   28500    215.61434    129.46192     131969.5   -40640.441    2627.3796   -43267.821    84.826892 
   28550    213.49873    83.667882    132039.14   -40669.507    2601.5998   -43271.107    84.897924 
   28600    211.21733    91.608895    132145.87   -40708.616    2573.7996   -43282.416    84.975162 
   28650    216.60826    48.614592    132124.48   -40682.033    2639.4911   -43321.524    84.960876 
   28700    213.34514   -220.73871    132182.01   -40698.512    2599.7281    -43298.24    85.236736 
   28750    209.06185    57.103088    132136.98   -40679.816     2547.534    -43227.35    85.350848 
   28800    217.16408   -43.389173    132032.75   -40654.494    2646.2641   -43300.758    85.460458 
   28850    216.47206   -24.418864    131975.64   -40656.076    2637.8315   -43293.907    85.737134 
   28900    217.22187    81.533816    131903.95   -40667.832    2646.9683     -43314.8    85.855663 
   28950    213.47585    11.278934    132144.93    -40634.35    2601.3209   -43235.671    86.089693 
   29000    215.61051   -56.987308    132145.59   -40672.813     2627.333   -43300.146    86.282255 
   29050    215.28259   -200.09437    132054.26   -40652.683     2623.337    -43276.02    86.317378 
   29100    217.28781    -43.87749    131969.16   -40653.454    2647.7718   -43301.226    86.498095 
   29150    220.98134   -13.356631    131992.98   -40634.986    2692.7795   -43327.765    86.627581 
   29200    218.14362   -5.2443663    132019.69   -40629.114    2658.2003   -43287.315    86.470161 
   29250    216.51024   -74.843455    132038.24   -40624.363    2638.2967   -43262.659    86.523203 
   29300    219.23915   -101.91491    132006.87   -40662.716    2671.5499   -43334.266    86.804022 
   29350    220.40621    3.6802907    131993.79   -40647.185    2685.7712   -43332.957     86.88576 
   29400    212.54688    185.30773    132077.93   -40668.113     2590.001   -43258.114     87.07209 
   29450    218.39032    -110.9794    132139.25   -40625.242    2661.2064   -43286.448    87.170348 
   29500    215.38323   -168.92014    132055.52    -40610.26    2624.5635   -43234.824    87.381746 
   29550    218.10078    87.976359    132036.86   -40601.124    2657.6783   -43258.803     87.59251 
   29600    211.80886    50.549234    132169.31   -40653.669    2581.0077   -43234.676    88.007309 
   29650    218.41869   -92.581375    132267.93   -40594.399    2661.5522   -43255.951    88.038994 
   29700     216.1689   -82.949039    132132.42   -40542.383    2634.1373   -43176.521    88.000431 
   29750    218.15062    -31.60496    132102.92   -40550.625    2658.2856   -43208.911    88.396152 
   29800    218.66009    42.726569    131986.75   -40613.396    2664.4938    -43277.89    88.423053 
   29850    218.03177   -92.239156    132032.71   -40625.388    2656.8373   -43282.225    88.416088 
   29900    216.10191      101.543    132087.67    -40629.19    2633.3209   -43262.511    88.579773 
   29950    217.18321   -64.349095    132102.21   -40591.945    2646.4972   -43238.442    88.603164 
   30000    215.89751      13.8812    132085.66   -40606.077    2630.8302   -43236.907    88.528593 
   30050    213.02884    193.32451    132199.72   -40640.906    2595.8739    -43236.78     88.77537 
   30100    215.83642   -87.409063    132184.37   -40643.139    2630.0858   -43273.224    88.729484 
   30150     212.7778   -104.76515    132007.09   -40648.085    2592.8149     -43240.9    88.876506 
   30200    215.54934    88.097778    132063.03   -40681.555    2626.5876   -43308.143    88.756693 
   30250     217.2641   -34.592842    132117.95    -40638.69    2647.4829   -43286.173    88.724897 
   30300    218.11502   -181.15715    131977.13   -40664.825    2657.8517   -43322.677    88.698453 
   30350    214.58611    93.135683     132050.1   -40645.609    2614.8501   -43260.459    88.817239 
   30400     213.3273    118.37942    132237.87   -40683.468    2599.5108   -43282.979    88.761922 
   30450    214.06046    120.03113    132240.33   -40669.878    2608.4447   -43278.322    88.898204 
   30500    215.29841   -35.702683    132284.84    -40753.22    2623.5299    -43376.75    89.188919 
   30550    212.51836    126.81854    132464.74   -40793.039    2589.6534   -43382.692     89.55635 
   30600    212.97613    36.310692    132431.64    -40737.33    2595.2315   -43332.562    89.682366 
   30650    212.91084    55.172491    132364.67     -40748.1     2594.436   -43342.536    89.791276 
   30700    215.13932   -59.268012    132199.08   -40735.709    2621.5913     -43357.3    89.897911 
   30750    214.25604    117.12104    132208.86   -40733.821    2610.8281   -43344.649    90.276202 
   30800    216.12484   -38.443741    132323.75   -40733.258    2633.6004   -43366.858    90.369734 
   30850    214.75982   -102.50928    132295.14   -40778.566    2616.9669   -43395.533    90.448149 
   30900    210.79236    113.79561    132283.24   -40782.161    2568.6211   -43350.782    90.596705 
   30950    215.24553   -97.700502    132177.34   -40760.163    2622.8855   -43383.048    90.544238 
   31000     214.0598    127.40012    132163.55   -40740.308    2608.4367   -43348.745    90.685741 
   31050    214.33458    -71.35811    132138.81   -40743.576     2611.785   -43355.361    90.639601 
   31100    216.53731    13.443828    132064.25   -40746.798    2638.6266   -43385.425    90.512881 
   31150    213.07565   -6.6442159    132029.46   -40810.803    2596.4443   -43407.247    90.409024 
   31200    211.83343    34.113678    132112.64   -40793.359    2581.3072   -43374.666    90.582813 
   31250    214.56542    122.17156    132200.21   -40745.823     2614.598   -43360.421    90.682002 
   31300    213.18454   -83.691755    132224.67   -40813.888    2597.7712    -43411.66    90.727232 
   31350    214.36834   -156.64427    132279.03   -40796.429    2612.1964   -43408.626    90.870172 
   31400    219.07801     23.80067     132168.5   -40733.816    2669.5864   -43403.403    91.042879 
   31450    214.47955   -149.31743     132174.7   -40731.731    2613.5516   -43345.283    91.051864 
   31500    218.72305    55.264326     132221.2   -40720.025     2665.261   -43385.286    91.397453 
   31550    214.19142   0.63318691    132112.91   -40748.001    2610.0406   -43358.041    91.678377 
   31600    220.13036    77.515654    132150.79   -40727.128    2682.4098   -43409.538    91.840723 
   31650    212.91179    126.12861    132082.14   -40813.094    2594.4475   -43407.542    91.894772 
   31700    212.82231   -4.7634221    132161.18   -40823.926    2593.3573   -43417.283    91.868518 
   31750    212.56201    14.963085    132149.64   -40800.365    2590.1853   -43390.551    92.061257 
   31800    211.98168      55.8473    132099.99   -40839.835    2583.1137   -43422.949    92.173496 
   31850    212.86186   -34.721922    132174.78   -40865.879    2593.8392   -43459.718    92.240002 
   31900    211.73095    80.556057    132035.34   -40809.462    2580.0583    -43389.52    92.368715 
   31950    210.70898   -16.625962    132081.02   -40793.505    2567.6052    -43361.11    92.631378 
   32000    214.75781   -45.055795    132043.66   -40769.891    2616.9424   -43386.834    92.960088 
   32050    221.14658   -89.299939    132021.73   -40744.881     2694.793   -43439.674      93.0646 
   32100    218.82969    37.443568    131998.68   -40744.351    2666.5604   -43410.912    93.162411 
   32150    210.40893   -10.933769    132028.29   -40735.586    2563.9488   -43299.535    93.294939 
   32200       211.05    -62.05653    131962.45   -40800.619    2571.7606    -43372.38    93.411283 
   32250     215.0769   -33.529625    131866.97   -40749.931    2620.8306   -43370.762    93.283743 
   32300    209.23472    167.27331    131930.41   -40817.558    2549.6404   -43367.199    93.543312 
   32350     214.6595   -24.802986     131981.8    -40816.93    2615.7444   -43432.675    93.585848 
   32400    214.47775    104.97258     132164.7   -40814.285    2613.5297   -43427.814    93.610953 
   32450    213.32284    16.625185    132134.46    -40821.43    2599.4564   -43420.886    93.834428 
   32500    214.30536    47.347996    132306.68   -40852.706    2611.4289   -43464.135    94.042904 
   32550    212.78388    39.268432    132203.91   -40886.864    2592.8889   -43479.753    94.044463 
   32600    218.55032    96.631201    132361.96   -40871.608    2663.1562   -43534.764    94.282225 
   32650    212.35242    -47.12521    132508.97   -40837.475    2587.6313   -43425.107    94.519979 
   32700    211.89317   -142.58622    132264.19   -40830.059    2582.0352   -43412.095    94.563444 
   32750    212.05279   -2.7678884    132147.75   -40878.352    2583.9802   -43462.332    94.557309 
   32800    216.40284       58.204    132303.49   -40880.987     2636.988   -43517.975    94.730722 
   32850    212.53836   -44.141312    132182.41   -40858.709    2589.8971   -43448.606    95.003729 
   32900    217.47804  -0.12914364    132183.39   -40786.556    2650.0898   -43436.646     95.09816 
   32950    212.73808   -111.26739    132113.08    -40816.04    2592.3308   -43408.371    95.169761 
   33000    213.36392   -21.804316    132035.69   -40818.635    2599.9571   -43418.592    95.375829 
   33050    217.08488   -50.832977     132063.2   -40793.472     2645.299   -43438.771    95.489153 
   33100     211.3469   -47.179333    131938.19   -40795.437    2575.3785   -43370.815    95.663775 
   33150    213.54777    104.86301    131876.14    -40804.38    2602.1973   -43406.578    95.642131 
   33200    214.29037   -52.463027    131874.96   -40771.357    2611.2463   -43382.604    95.774123 
   33250    215.73137   -12.253958    131967.96   -40776.824    2628.8057   -43405.629    95.840901 
   33300    215.94181   -201.40575    131846.91   -40785.078      2631.37   -43416.448     95.77938 
   33350    213.09986    152.80303     131941.2   -40811.109    2596.7393   -43407.848    95.991976 
   33400    210.07542   -24.660419    131975.87   -40762.615    2559.8849     -43322.5    95.984492 
   33450    212.92036    -196.0025    132044.68    -40745.98     2594.552   -43340.532    96.147682 
   33500    213.33531   -109.02774    131835.38   -40724.285    2599.6084   -43323.893    96.227892 
   33550    210.10405    -212.0501    131814.74   -40746.749    2560.2337   -43306.983     96.59267 
   33600    215.61794    -35.97801     131690.3   -40766.907    2627.4235   -43394.331    96.920561 
   33650    211.95805   -28.332524    131800.77   -40765.859    2582.8258   -43348.685    97.199567 
   33700    211.23622   -11.488462    131807.84   -40766.716    2574.0298   -43340.746    97.353933 
   33750    208.70594   -110.65103    131913.26   -40815.343     2543.197    -43358.54    97.401416 
   33800    214.37636    32.127028    131865.45   -40833.797    2612.2941   -43446.091    97.587629 
   33850    212.60035    3.7871142    131952.74   -40849.475    2590.6525   -43440.127     97.76855 
   33900    212.82205   -21.532084    132023.12   -40857.496     2593.354    -43450.85    97.983733 
   33950    214.49404    161.08958    132179.87   -40823.296    2613.7282   -43437.024    98.054982 
   34000    216.24485   -137.86684    132225.64   -40852.582    2635.0628   -43487.644    98.090658 
   34050    214.55046   -114.91606    132117.59   -40799.607    2614.4157   -43414.023    98.220936 
   34100    212.43281    81.955301    132086.64   -40853.549     2588.611    -43442.16    98.205838 
   34150    214.54782    7.5421632    132189.48   -40808.323    2614.3835   -43422.707    98.414505 
   34200    216.05932   -4.2350192    132095.53   -40734.581     2632.802   -43367.383    98.413316 
   34250    216.33218    23.997852    132094.01   -40732.428    2636.1269   -43368.554    98.705597 
   34300    214.43523    28.280333    132251.65   -40722.106    2613.0115   -43335.118    98.693833 
   34350    217.02014   -94.240905    132072.76   -40731.407    2644.5101   -43375.917    99.096117 
   34400    214.14034    6.4346516    132160.88     -40711.9    2609.4181   -43321.318    99.079789 
   34450    214.69744   -156.61711    132060.26   -40751.422    2616.2067   -43367.629    99.254107 
   34500     215.2698   -22.785536    131768.36   -40758.682    2623.1813   -43381.863    99.387697 
   34550    212.84728    107.71565    131788.87   -40765.981    2593.6615   -43359.642    99.408162 
   34600    215.62648   -15.441419    131787.84   -40723.702    2627.5276   -43351.229    99.262598 
   34650    215.34356   -74.911463    131809.87   -40714.324    2624.0801   -43338.404    99.425361 
   34700    215.00363   -75.770568    131767.29   -40692.615    2619.9378   -43312.553    99.596761 
   34750    216.34445    152.19859     131802.2   -40665.832    2636.2765   -43302.108    99.703479 
   34800    215.65302    -109.4082    131784.24   -40692.738    2627.8509   -43320.589    99.841087 
   34850    215.30771   -15.930043    131819.22   -40717.856    2623.6431   -43341.499    100.08803 
   34900    215.70004    63.084718    131748.04   -40681.783    2628.4239   -43310.207     100.1675 
   34950    215.78551   -17.851682    131717.76   -40679.852    2629.4655   -43309.317    100.44476 
   35000    215.66242    75.614841    131721.38   -40672.803    2627.9655   -43300.768    100.66933 
   35050    217.31841   -24.038655    131695.84    -40670.36    2648.1447   -43318.505     101.0354 
   35100    221.43853    76.788236     131734.5   -40629.392    2698.3506   -43327.742    101.06616 
   35150    215.84403   -73.330252    131826.01   -40690.954    2630.1785   -43321.132    101.29488 
   35200    212.57812   -192.88494    131666.43   -40742.398    2590.3816    -43332.78    101.19412 
   35250    211.08486    34.343956    131609.22   -40701.723    2572.1854   -43273.909    101.14641 
   35300    217.31168    45.516267    131601.52   -40659.037    2648.0626   -43307.099    101.51353 
   35350     215.4597    59.196842    131626.27   -40738.317    2625.4952   -43363.812    101.55477 
   35400    215.59308    145.10993    131705.22   -40708.163    2627.1206   -43335.284    101.60029 
   35450    212.99405    -15.86794    131737.96   -40721.573      2595.45   -43317.023    101.93969 
   35500    216.29549    129.97248     131686.9   -40699.041    2635.6798   -43334.721    102.16113 
   35550    214.87509    25.180875    131794.84   -40755.613    2618.3715   -43373.985    102.22342 
   35600    213.52578   -180.35174    131777.31   -40781.904    2601.9294   -43383.833    102.57351 
   35650    210.86158    21.680352    131800.04   -40799.604    2569.4647   -43369.069     102.6046 
   35700    218.99332   -208.66187    131782.29   -40779.526    2668.5543   -43448.081    102.51341 
   35750    216.07946    20.954992    131827.45   -40741.875    2633.0474   -43374.922    102.67678 
   35800    213.41521    44.364162    131878.69   -40742.941     2600.582   -43343.523    102.51001 
   35850    212.25612    139.55668    131900.25   -40740.278    2586.4579   -43326.736    102.43685 
   35900    216.93984    116.27742    132063.47   -40789.302    2643.5316   -43432.834    102.58911 
   35950    212.98875    57.239869     132096.5   -40777.831    2595.3854   -43373.217    102.75459 
   36000    211.35496   -62.848131    132076.74   -40797.562    2575.4767   -43373.039    102.95208 
   36050    212.97114   -122.13964    131908.68   -40840.889    2595.1708    -43436.06    103.11829 
   36100    211.01017     39.57957    131899.72    -40869.17    2571.2753   -43440.445    103.17853 
   36150    210.09598   -112.97687    131920.71   -40875.197    2560.1354   -43435.333    103.48789 
   36200     209.3139    93.903648    132025.21   -40890.208    2550.6053   -43440.814    103.78709 
   36250    208.79993    50.931961    132105.07   -40894.571    2544.3423   -43438.913    104.15903 
   36300    209.07618     40.33996    132044.63   -40832.864    2547.7086   -43380.573    104.46029 
   36350    212.50235   -41.515048    131892.69   -40783.369    2589.4584   -43372.828    104.49578 
   36400    212.65788   -105.99636    131769.91   -40775.535    2591.3535   -43366.889    104.42977 
   36450    210.80237   -68.784085    131632.15   -40809.183    2568.7431   -43377.926     104.3752 
   36500    211.10623    103.42784    131725.73   -40792.827    2572.4458   -43365.273    104.50718 
   36550    211.30097  -0.45893193    131736.91    -40834.61    2574.8188   -43409.429    104.74616 
   36600    211.31629   -66.512185    131699.52   -40803.946    2575.0056   -43378.952     104.9385 
   36650    211.30764   -70.702566     131756.5   -40786.196    2574.9002   -43361.096    105.08871 
   36700    210.87096   -91.147368    131708.17   -40813.962    2569.5789   -43383.541    104.98874 
   36750    209.99733    63.880236    131714.47   -40874.338    2558.9333   -43433.272    104.97089 
   36800    209.62703    196.41785    131899.72   -40839.804     2554.421   -43394.225    105.48698 
   36850    215.64953    68.973125    132082.99   -40792.464    2627.8084   -43420.273    105.93762 
   36900    213.70046    60.024923     132095.2   -40752.568    2604.0579   -43356.626    105.80447 
   36950    215.54676   -76.413886    132089.55   -40739.352    2626.5561   -43365.909    105.76771 
   37000    212.60644   -54.721095    132067.97   -40766.403    2590.7267    -43357.13    106.05874 
   37050    216.80683   -384.96106    131822.27   -40746.548    2641.9108   -43388.459    106.31877 
   37100    219.38439     192.0192    131762.93   -40722.623    2673.3198   -43395.943    106.42327 
   37150     215.1032    141.85082     131943.2    -40716.17    2621.1511   -43337.321    106.59598 
   37200    221.74158    40.416822    132006.07   -40657.649    2702.0434   -43359.693    106.90571 
   37250     220.1587    3.0185832    132074.37   -40637.217    2682.7552   -43319.972     107.1725 
   37300    219.39764     16.60708     132212.6   -40621.173    2673.4812   -43294.654    107.39061 
[...]
  191000    213.04282    4.6107671    131804.48   -40782.852    2596.0443   -43378.896    533.13228 
  191050    211.70525   -75.324557    131726.21   -40734.738    2579.7453   -43314.484    533.00113 
  191100    212.53577    10.267619    131675.85   -40734.196    2589.8655   -43324.061    533.16427 
  191150    212.28423     199.4167    131664.09   -40722.406    2586.8004   -43309.206    533.52035 
  191200    213.16213    86.340718    131853.33   -40749.243    2597.4981   -43346.741    534.30001 
  191250    214.27878     158.2958    131953.55   -40724.683    2611.1051   -43335.788    534.31697 
  191300    214.36003   -113.18959    131985.03   -40718.903    2612.0952   -43330.998    534.85973 
  191350    213.06437   -73.773087    131965.84    -40696.05    2596.3069   -43292.357    535.10519 
  191400     214.9081    101.97892    131988.98   -40661.623    2618.7738   -43280.396    535.78468 
  191450    211.22263   -166.46105    131947.32   -40716.551    2573.8642   -43290.415    536.11982 
  191500    210.92557   -230.19621    131704.83   -40734.889    2570.2444   -43305.134     535.8825 
  191550    212.16695     28.39192    131685.67   -40725.241    2585.3713   -43310.612    536.64932 
  191600    216.00018   -56.795516    131575.64   -40653.208    2632.0814   -43285.289    536.40112 
  191650    213.12965   -47.471582    131595.99   -40680.355    2597.1023   -43277.458    536.45846 
  191700    216.50956   -175.34483    131551.78   -40691.923    2638.2884   -43330.212    536.54013 
  191750    212.17576    142.96703    131622.04   -40655.638    2585.4787   -43241.116    536.62571 
  191800    212.91289    10.625776    131612.54   -40605.898    2594.4609   -43200.359    537.09146 
  191850     213.6864   -125.84964    131537.14   -40633.108    2603.8866   -43236.995    536.95639 
  191900    211.98833    25.518233    131372.15   -40649.463    2583.1947   -43232.658    536.62117 
  191950    211.13206   -84.447429     131319.1   -40673.059    2572.7606    -43245.82    536.91783 
  192000    213.28528   -12.567039    131209.74   -40640.546    2598.9987   -43239.545    537.29687 
  192050    216.85408   -50.167717    131210.95   -40591.182    2642.4866   -43233.669    537.26488 
  192100    216.44973   -40.015122    131120.21   -40563.855    2637.5594   -43201.415    537.58029 
  192150    218.73053   -217.55433    131110.63    -40559.88    2665.3522   -43225.232    538.08934 
  192200    217.49018    76.197106    131148.19   -40566.424    2650.2378   -43216.662    538.32488 
  192250    215.93262    12.975707    131243.09   -40599.748    2631.2581   -43231.006    538.61022 
  192300    210.67631   -41.459485     131153.2   -40642.097     2567.207   -43209.304    538.00693 
  192350    210.64066    134.13764    131099.38   -40651.934    2566.7726   -43218.706    538.23167 
  192400    213.90592    69.855038    131188.69   -40630.359    2606.5616   -43236.921    538.29047 
  192450    213.28612    40.465038    131227.13   -40623.925     2599.009   -43222.934    538.88776 
  192500    219.28156   -58.858842     131188.6   -40584.406    2672.0667   -43256.473    539.03753 
  192550    213.67372    141.45141    131311.36   -40608.169    2603.7321   -43211.902    539.87441 
  192600    217.17399   -61.604619     131469.5     -40564.4    2646.3848   -43210.784    540.21992 
  192650    211.08704   -17.597991    131330.89   -40613.006     2572.212   -43185.218    540.27523 
  192700    216.83427   -203.87106     131357.2    -40602.15    2642.2451   -43244.396    540.18509 
  192750    218.05257   -12.961118    131208.45   -40606.892    2657.0908   -43263.983    539.89106 
  192800    213.52516    30.099668    131396.06   -40621.096    2601.9219   -43223.018    540.55543 
  192850    213.00307   -46.679994     131421.8    -40600.54    2595.5598     -43196.1    540.53905 
  192900    217.60301   -86.180555    131343.97   -40636.902    2651.6127   -43288.515    540.32897 
  192950    213.91056    60.971471    131253.75   -40578.813    2606.6181   -43185.431     540.9496 
  193000    217.36666   -69.229717       131225   -40578.961    2648.7326   -43227.693    541.31388 
  193050    218.41241   -29.473732    131263.35   -40577.124    2661.4756     -43238.6    541.45877 
  193100    215.01885    49.349925    131235.19   -40573.408    2620.1233   -43193.532    541.91229 
  193150    215.46496    13.571771    131123.34   -40543.837    2625.5594   -43169.396    541.33497 
  193200    211.13465    50.764695    131140.11   -40534.703    2572.7922   -43107.495    541.51459 
  193250    219.85833    142.76503    131279.25   -40498.266    2679.0949   -43177.361     541.7718 
  193300    218.22975   -79.998711    131236.37   -40544.745    2659.2498   -43203.994    541.78869 
  193350    216.76981     115.9973    131238.53   -40547.027    2641.4596   -43188.487    541.75682 
  193400    212.54188    88.253318    131484.36   -40548.695      2589.94   -43138.635    543.03113 
  193450    214.72353    134.49705    131531.94   -40574.902    2616.5247   -43191.426    543.09673 
  193500    217.03104   -53.739729    131391.46   -40519.685     2644.643   -43164.328    542.83866 
  193550    213.88762   -64.702348    131473.32   -40512.525    2606.3386   -43118.863     543.4709 
  193600    216.03792    84.091597    131460.22   -40496.548    2632.5412   -43129.089    543.90166 
  193650    215.50315   -38.066088    131428.05   -40512.369    2626.0247   -43138.394     544.1396 
  193700    215.87908   -72.384994    131503.94   -40525.114    2630.6056    -43155.72     544.7816 
  193750    223.77819    93.508703     131599.8    -40444.26    2726.8606   -43171.121    545.50106 
  193800    222.84923    50.283844     131662.2   -40453.556    2715.5408   -43169.097     545.4624 
  193850    220.01026    21.753156    131749.81   -40505.264    2680.9463    -43186.21     545.8144 
  193900    216.41481   -103.44559    131640.59   -40507.383    2637.1338   -43144.517     546.3545 
  193950    214.55818    42.908751    131462.52   -40551.401    2614.5098   -43165.911    545.94103 
  194000    215.26112   -7.7370735    131324.44   -40559.744    2623.0754   -43182.819    544.99865 
  194050    217.35107    44.793923    131431.85   -40561.196    2648.5427   -43209.739    545.95659 
  194100    217.65108   -225.27827    131409.69   -40566.272    2652.1984   -43218.471    545.91667 
  194150      218.162    23.613327    131330.65   -40566.841    2658.4242   -43225.265    545.80791 
  194200      219.599    81.401763    131467.02   -40557.743     2675.935   -43233.678    546.38777 
  194250    213.13675   -97.435589    131217.17   -40627.722    2597.1889   -43224.911     546.1831 
  194300    213.37122   -81.982624    131166.44   -40589.475    2600.0459   -43189.521    546.28657 
  194350    216.82136    80.740843    131114.43   -40584.337    2642.0879   -43226.425    546.31474 
  194400    214.62404    136.53942    131356.44   -40601.553    2615.3123   -43216.865    547.26392 
  194450    214.08761   -8.6248211    131525.16   -40651.065    2608.7756   -43259.841    547.82025 
  194500    213.29405     114.5262    131562.24   -40645.304    2599.1056   -43244.409    548.19381 
  194550    217.61755   -30.196599    131520.96   -40623.745    2651.7898   -43275.535    548.71711 
  194600    213.97868    126.56486    131631.76   -40619.946    2607.4482   -43227.395    548.98867 
  194650    214.71993   -18.431358    131717.49   -40657.339    2616.4808   -43273.819    549.55948 
  194700    214.80105   -9.0170659    131623.49   -40675.283    2617.4693   -43292.752    549.25657 
  194750    212.17459    6.2590273       131594   -40671.745    2585.4644   -43257.209    549.54488 
  194800    217.76255    68.621089    131597.47   -40627.709    2653.5567   -43281.266    549.89839 
  194850    216.55796   -84.947132    131676.44   -40613.392    2638.8782   -43252.271    550.06437 
  194900    219.28668   -60.989741    131649.73   -40592.051    2672.1291    -43264.18    550.11376 
  194950    218.55501   -9.0155834    131620.72   -40607.279    2663.2133   -43270.492    549.82999 
  195000    215.87422   -180.81273       131374   -40693.321    2630.5464   -43323.868    549.17911 
  195050    214.16786    138.33397    131433.21   -40674.636    2609.7535    -43284.39    549.56899 
  195100    214.79837    17.758099    131591.88   -40660.209    2617.4366   -43277.645     550.0227 
  195150    217.14043   -63.357073     131550.5   -40631.762    2645.9759   -43277.738    549.69787 
  195200    216.42163    141.96741    131580.97     -40603.3     2637.217   -43240.517    550.09595 
  195250    216.62801   -22.412686    131675.53   -40647.772    2639.7318   -43287.504    549.85063 
  195300    217.26291    24.578304    131670.56   -40654.298    2647.4684   -43301.766    549.81994 
  195350    213.55713    85.252734    131567.65    -40643.82    2602.3114   -43246.131    549.57261 
  195400    214.76017   -91.538893    131640.65   -40672.715    2616.9711   -43289.686    549.81846 
  195450     213.8461   -134.93214    131607.45    -40709.12    2605.8327   -43314.953    549.27343 
  195500    209.21592    44.421054    131471.37   -40766.883    2549.4113   -43316.294    548.90444 
  195550    216.30907   -117.34532    131453.16   -40748.239    2635.8453   -43384.085    548.72864 
  195600    213.53145   -113.24097    131224.23   -40694.286    2601.9985   -43296.284    548.23905 
  195650    217.12128     56.05147    131199.29   -40689.403    2645.7425   -43335.145    548.16914 
  195700    216.34296     57.46242    131344.46   -40678.638    2636.2582   -43314.896    548.45111 
  195750    216.81506   -23.987637    131574.45   -40702.466     2642.011   -43344.477    549.89992 
  195800    215.34461    47.434594    131692.68   -40700.326    2624.0929   -43324.419    550.43723 
  195850    216.78153    144.04557    131811.99   -40704.008    2641.6025   -43345.611    550.24918 
  195900    214.42289   -47.700173    131771.77   -40700.722    2612.8612   -43313.583    550.36376 
  195950    212.78033   -119.71088    131635.69   -40698.084    2592.8457    -43290.93     550.4968 
  196000    212.43113     61.55978    131645.28   -40694.457    2588.5905   -43283.047    550.29032 
  196050    214.75276    52.610562    131620.47   -40733.066    2616.8808   -43349.947    550.06355 
  196100    210.41521    74.427736    131678.39   -40665.915    2564.0254    -43229.94    551.10269 
  196150    214.00368   -57.383458    131605.53   -40659.676    2607.7529   -43267.429    551.09818 
  196200    217.47347    68.845222    131612.29   -40630.777    2650.0341   -43280.811    551.06155 
  196250    213.64607   -43.898442    131677.66   -40668.737    2603.3951   -43272.133    551.67708 
  196300    217.58971   -14.467827     131722.9   -40608.157    2651.4506   -43259.608    552.29534 
  196350    217.27719    102.70848    131765.44   -40611.828    2647.6424    -43259.47     552.2154 
  196400    219.83209    90.923852    131851.45   -40599.804    2678.7753   -43278.579     553.2598 
  196450    218.56938   -5.2249351    131898.25    -40618.09    2663.3884   -43281.479     553.4707 
  196500    216.98064   -111.61475     131842.5   -40586.796    2644.0287   -43230.825     553.6489 
  196550    218.21817   -84.157151    131841.48    -40602.76    2659.1087   -43261.868      554.064 
  196600    213.52974   -77.469529    131775.74   -40627.475    2601.9776   -43229.453    554.08837 
  196650    216.90277   -87.966829    131786.51   -40597.356    2643.0799   -43240.436    553.96615 
  196700    218.45652    178.81732    131909.53   -40588.245    2662.0131   -43250.258    554.32783 
  196750    218.30143    33.587096    131938.31   -40595.979    2660.1234   -43256.102    554.95885 
  196800    217.35898    97.196434    131981.06   -40665.879     2648.639   -43314.519    554.91927 
  196850    217.27677    106.98862    132075.51   -40658.284    2647.6372   -43305.921    555.22746 
  196900    217.81313    122.49862    132246.54   -40696.917    2654.1731   -43351.091     555.5591 
  196950    224.85786   -40.860777    132191.61   -40656.915     2740.017   -43396.932    555.22844 
  197000    218.76436   -41.428595    132071.21   -40674.543    2665.7644   -43340.307    555.48246 
  197050    222.94657    99.421867    132159.87   -40676.267    2716.7269   -43392.994    555.39792 
  197100    212.92358   -18.525423    132151.41   -40747.397    2594.5912   -43341.989    555.63183 
  197150    211.83827   -86.017287    132024.37   -40761.698    2581.3661   -43343.065    555.24492 
  197200    216.20155   -115.85428    131978.29   -40767.124    2634.5351   -43401.659    555.37377 
  197250     215.6348   -54.409963    131833.63   -40799.207     2627.629   -43426.836    555.03663 
  197300     213.9831    181.72417     131985.9   -40835.942     2607.502   -43443.444    555.56395 
  197350    212.67305    210.42873    132088.98   -40813.836    2591.5384   -43405.375    555.85577 
  197400     216.0626   -78.137851    132087.11   -40782.771     2632.842   -43415.613    555.67089 
  197450    216.11739   -46.604168    132044.19   -40786.033    2633.5096   -43419.543    555.90873 
  197500    213.58278   -138.15886    131968.79   -40827.686     2602.624    -43430.31     555.6348 
  197550    214.39204    77.805461    132007.26   -40779.146    2612.4853   -43391.631    556.33594 
  197600    211.31192    153.57605    131958.43   -40796.697    2574.9523    -43371.65    557.18302 
  197650    214.01329     14.88354     131911.8   -40794.645    2607.8699   -43402.515    557.31291 
  197700    215.76855    56.900696    131964.18   -40752.426    2629.2588   -43381.685    557.48263 
  197750     213.5574    47.759131    132013.51   -40738.255    2602.3147    -43340.57    558.06742 
  197800    214.40007    9.9767277    131977.74   -40738.322    2612.5831   -43350.905    557.47981 
  197850    216.32324   -41.203015    132011.32   -40796.906     2636.018   -43432.924    557.48938 
  197900    213.23135    226.28698    132151.06    -40780.76    2598.3416   -43379.102    557.99821 
  197950    213.65669    103.30479    132201.28   -40757.532    2603.5246   -43361.057    557.55653 
  198000    211.61932   -59.169052    132223.24   -40782.584    2578.6982   -43361.282    557.86538 
  198050    213.98326    -110.5413    132183.87   -40796.759    2607.5041   -43404.263     557.9289 
  198100    214.78356   -10.384928    132091.32   -40818.528    2617.2562   -43435.784    557.38904 
  198150    210.28643    -54.60544    132036.14   -40833.967    2562.4562   -43396.423    557.24813 
  198200    211.68118   -257.09828    132006.25   -40805.961    2579.4519   -43385.413    557.04445 
  198250    213.61129   -1.7683087    131885.28    -40804.66    2602.9714   -43407.632    557.43519 
  198300    213.84859    125.99902    132000.96   -40774.626     2605.863   -43380.489    557.65988 
  198350    220.35467   -29.411396    132189.57   -40723.194    2685.1431   -43408.338    558.09966 
  198400    220.88435   -40.433279     132039.2   -40709.801    2691.5976   -43401.398    557.56691 
  198450    220.54906   -114.41261    131911.73   -40711.068    2687.5119    -43398.58    556.97805 
  198500    215.92068   -116.81281    131812.31   -40761.972    2631.1126   -43393.085     557.6456 
  198550    215.51237     146.4366    131867.94   -40713.279    2626.1371   -43339.416    557.96324 
  198600    216.66808   -38.782602     131916.2   -40710.468    2640.2201   -43350.688    557.80759 
  198650    214.46923   -62.184125    131931.17   -40716.987    2613.4258   -43330.413    558.49734 
  198700    220.16168   -41.783563    131850.53   -40708.032    2682.7915   -43390.823    557.96805 
  198750    214.89233   -48.948217    131860.78   -40751.469    2618.5815    -43370.05    558.09152 
  198800    213.88764    77.228704    131892.39   -40742.405    2606.3389   -43348.744    557.88473 
  198850    215.86334   -90.371747    131670.87   -40741.763    2630.4139   -43372.177    557.42131 
  198900    211.25353    58.134572    131764.36   -40783.579    2574.2408    -43357.82    557.60358 
  198950    212.98425    218.36097    132019.25   -40784.539    2595.3306   -43379.869    558.81583 
  199000    213.05828    8.2666468    132114.65   -40748.046    2596.2326   -43344.279     559.1189 
  199050    214.44343   -68.539222     132049.4   -40744.543    2613.1115   -43357.655    559.03566 
  199100    210.24155   -20.005624    131953.45   -40746.587    2561.9092   -43308.496    558.73944 
  199150    213.11569    41.456893     132037.2   -40743.836    2596.9322   -43340.768    559.14039 
  199200    211.67721   -175.30633    131957.37   -40796.654    2579.4036   -43376.058    558.49588 
  199250    216.52424    -95.04167    131785.06   -40787.226    2638.4673   -43425.693    558.44102 
  199300    213.27954    52.858713     131835.2   -40742.522    2598.9288   -43341.451    558.47222 
  199350    210.14167    28.555611    131756.35   -40709.298    2560.6921    -43269.99    557.94546 
  199400    212.61491    160.85736    131930.93   -40715.853    2590.8299   -43306.683    558.56385 
  199450    212.89297   -72.282236    131992.95   -40721.876    2594.2182   -43316.095    559.35839 
  199500    217.78604    11.210021    132026.59   -40711.008     2653.843   -43364.851     559.5389 
  199550     216.6169    64.447809    131996.72   -40707.903    2639.5963     -43347.5    559.42169 
  199600    214.77779   -59.455385    131983.41   -40703.801    2617.1858   -43320.987    559.31923 
  199650    216.76471   -23.590482    131944.46   -40703.324    2641.3976   -43344.722    560.09258 
  199700    216.48896    122.40934     131904.9   -40661.493    2638.0373    -43299.53    559.76324 
  199750    219.04441   -36.671861    132001.92   -40663.392    2669.1769   -43332.568    559.97042 
  199800     215.2275     162.1136    132032.79   -40675.639    2622.6657   -43298.305    560.62302 
  199850    222.31213   -116.28639    131967.67     -40650.7    2708.9959   -43359.696    560.19233 
  199900    216.35383    2.6388073    131951.99    -40662.02    2636.3907   -43298.411    560.88878 
  199950    213.93261    14.689763    131890.67   -40677.112    2606.8869   -43283.999    560.97695 
  200000    217.88522    48.545508    132038.83   -40682.358    2655.0516    -43337.41    561.49378 
Loop time of 365.725 on 12 procs for 200000 steps with 4089 atoms

Performance: 236.243 ns/day, 0.102 hours/ns, 546.859 timesteps/s
98.6% CPU use with 12 MPI tasks x no OpenMP threads

MPI task timing breakdown:
Section |  min time  |  avg time  |  max time  |%varavg| %total
---------------------------------------------------------------
Pair    | 236.71     | 280.58     | 324.28     | 176.2 | 76.72
Neigh   | 6.1369     | 7.2029     | 8.3749     |  28.1 |  1.97
Comm    | 25.049     | 68.8       | 113.04     | 358.6 | 18.81
Output  | 0.16081    | 0.18978    | 0.49648    |  21.2 |  0.05
Modify  | 6.291      | 7.3533     | 7.9891     |  23.0 |  2.01
Other   |            | 1.598      |            |       |  0.44

Nlocal:    340.75 ave 373 max 291 min
Histogram: 1 1 2 0 0 0 0 3 4 1
Nghost:    964.333 ave 1011 max 899 min
Histogram: 1 2 1 0 0 0 1 3 2 2
Neighs:    0 ave 0 max 0 min
Histogram: 12 0 0 0 0 0 0 0 0 0
FullNghs:  11092.3 ave 12505 max 9153 min
Histogram: 1 2 1 0 0 0 1 4 2 1

Total # of neighbors = 133108
Ave neighs/atom = 32.5527
Neighbor list builds = 11819
Dangerous builds = 0

write_data		${DIR}/data.eq-${NAME}-${TEMP}
write_data		run_9/data.eq-${NAME}-${TEMP}
write_data		run_9/data.eq-hardcavity_freeze_9-${TEMP}
write_data		run_9/data.eq-hardcavity_freeze_9-215
undump          1

reset_timestep  0

unfix           2
unfix           3
unfix           4


################################################
#######         Run Simulation         #########
################################################

log				${DIR}/log.run_${NAME}
log				run_9/log.run_${NAME}
log				run_9/log.run_hardcavity_freeze_9
