

### IMPORT ATOMS ###
read_data ../Box_Setup/data.Ibeam_240K
  orthogonal box = (0 0 0) to (157.504 40.4305 33.9212)
  10 by 4 by 4 MPI processor grid
  reading atoms ...
  9248 atoms
  reading velocities ...
  9248 velocities
group water type 2
1952 atoms in group water
group graphite type 1
7296 atoms in group graphite


# Define potential
#
pair_style          sw
pair_coeff * * MLC_e.sw C mW

# Add velocity/set timestep
#

fix		1 graphite setforce 0.0 0.0 0.0
velocity 	graphite set 0.0 0.0 0.0
velocity            water create ${START_TEMP} ${SEED} rot yes dist gaussian
velocity            water create 240 ${SEED} rot yes dist gaussian
velocity            water create 240 17284 rot yes dist gaussian
timestep            5.0

# Define output
#
compute 1 water msd
compute 2 water temp


thermo	            100
thermo_style custom step c_2 press vol etotal ke pe c_1[4] density

# Neighbor lists
#
neigh_modify        delay 0 every 1 check yes


# Set fixes
#
fix                 2 water momentum 10 linear 1 1 1 rescale
fix                 3 all nve
fix                 4 water temp/csvr ${START_TEMP} ${START_TEMP} 500.0 928347
fix                 4 water temp/csvr 240 ${START_TEMP} 500.0 928347
fix                 4 water temp/csvr 240 240 500.0 928347

# Run 0.05 ns equilibration
#
dump                1 all custom 100 ${DIR}/eq.${NAME}.dump id type x y z vx vy vz
dump                1 all custom 100 run_25/eq.${NAME}.dump id type x y z vx vy vz
dump                1 all custom 100 run_25/eq.ibeam_cooling_25.dump id type x y z vx vy vz
run                 10000
Neighbor list info ...
  update every 1 steps, delay 0 steps, check yes
  max neighbors/atom: 2000, page size: 100000
  master list distance cutoff = 6.67472
  ghost atom cutoff = 6.67472
  binsize = 3.33736, bins = 48 13 11
  1 neighbor lists, perpetual/occasional/extra = 1 0 0
  (1) pair sw, perpetual
      attributes: full, newton on
      pair build: full/bin/atomonly
      stencil: full/bin/3d
      bin: standard
Per MPI rank memory allocation (min/avg/max) = 0.4647 | 3.681 | 4.743 Mbytes
Step c_2 Press Volume TotEng KinEng PotEng c_1[4] Density 
       0          240   -299.33439    216009.12   -18704.344    1395.7345   -20100.079            0   0.94393226 
     100    228.54027   -461.34262    216009.12    -18708.69    1329.0898    -20037.78   0.80556284   0.94393226 
     200    240.40241   -340.08035    216009.12   -18755.527    1398.0747   -20153.602    1.1338873   0.94393226 
     300    229.36637   -300.03178    216009.12   -18721.672     1333.894   -20055.566    1.5720994   0.94393226 
     400    235.57656    -368.6971    216009.12    -18717.22    1370.0097    -20087.23    1.9616297   0.94393226 
     500    244.37438   -277.85244    216009.12   -18697.962     1421.174   -20119.136    2.3504016   0.94393226 
     600     241.3134   -337.13336    216009.12   -18607.759    1403.3727   -20011.132    2.7367302   0.94393226 
     700    245.10161   -322.94791    216009.12   -18600.614    1425.4032   -20026.017    3.1236372   0.94393226 
     800    247.11203   -211.24695    216009.12   -18589.763     1437.095   -20026.858    3.5435986   0.94393226 
     900    242.18972   -363.21705    216009.12     -18632.9    1408.4689   -20041.369    3.8854129   0.94393226 
    1000    241.12989   -227.20225    216009.12    -18676.32    1402.3054   -20078.625    4.1973162   0.94393226 
    1100    237.96337   -419.65683    216009.12   -18643.806    1383.8904   -20027.696     4.579139   0.94393226 
    1200    240.18878   -259.37986    216009.12   -18642.622    1396.8324   -20039.454    4.8820615   0.94393226 
    1300    241.98125   -264.96908    216009.12    -18602.52    1407.2566   -20009.777     5.153557   0.94393226 
    1400    242.60877    -83.96422    216009.12    -18645.05     1410.906   -20055.956    5.6008816   0.94393226 
    1500    244.91639   -302.28971    216009.12   -18680.404     1424.326   -20104.731    5.8223181   0.94393226 
    1600    236.84725   -278.23926    216009.12   -18666.984    1377.3995   -20044.383    6.0028109   0.94393226 
    1700    240.25012   -439.13379    216009.12   -18666.876    1397.1891   -20064.065    6.2640038   0.94393226 
    1800    244.29527   -457.37575    216009.12   -18634.363    1420.7139   -20055.077    6.3619145   0.94393226 
    1900     243.4747   -211.37284    216009.12   -18601.969    1415.9418   -20017.911     6.793198   0.94393226 
    2000    244.58527   -241.83275    216009.12   -18571.637    1422.4004   -19994.037     7.160609   0.94393226 
    2100    239.48747   -335.78252    216009.12   -18669.821    1392.7539   -20062.575    7.5083727   0.94393226 
    2200     240.5124   -375.98141    216009.12   -18665.843    1398.7144   -20064.557    8.1339662   0.94393226 
    2300    247.03511   -474.89477    216009.12   -18638.521    1436.6476   -20075.169    8.4099837   0.94393226 
    2400    243.54232   -491.63255    216009.12    -18640.59    1416.3351   -20056.925    8.7015679   0.94393226 
    2500    240.82485   -267.45768    216009.12   -18668.188    1400.5315   -20068.719    8.7495467   0.94393226 
    2600    236.56949   -251.14047    216009.12   -18655.969    1375.7841   -20031.753    8.9897105   0.94393226 
    2700    242.73244   -317.87915    216009.12   -18654.667    1411.6252   -20066.292    9.2736216   0.94393226 
    2800    245.03773   -318.72696    216009.12   -18604.066    1425.0317   -20029.098    9.5797711   0.94393226 
    2900    238.68546   -287.29701    216009.12   -18596.552    1388.0897   -19984.641    10.142697   0.94393226 
    3000    239.28378   -241.76086    216009.12   -18586.011    1391.5693    -19977.58    10.514991   0.94393226 
    3100    246.04969   -317.62442    216009.12   -18580.812    1430.9169   -20011.729    10.849739   0.94393226 
    3200    237.17115   -253.42618    216009.12   -18628.618    1379.2832   -20007.901    11.016453   0.94393226 
    3300    234.62994   -281.69516    216009.12   -18705.406    1364.5046   -20069.911    11.421993   0.94393226 
    3400    237.71796   -370.01148    216009.12   -18649.119    1382.4631   -20031.582     11.94234   0.94393226 
    3500    240.53667    -300.7834    216009.12   -18654.876    1398.8556   -20053.732    12.337317   0.94393226 
    3600    237.75117   -433.86749    216009.12   -18653.208    1382.6563   -20035.864    12.591997   0.94393226 
    3700    242.17103   -330.47666    216009.12   -18639.407    1408.3602   -20047.768    12.905162   0.94393226 
    3800    246.76898   -266.51417    216009.12   -18629.743    1435.0999   -20064.843    13.270989   0.94393226 
    3900    244.13065   -250.83927    216009.12    -18633.75    1419.7566   -20053.507    13.537848   0.94393226 
    4000    238.39377   -324.88726    216009.12    -18674.34    1386.3934   -20060.733    13.800658   0.94393226 
    4100    237.61431   -187.38687    216009.12   -18668.957    1381.8604   -20050.817    14.290539   0.94393226 
    4200    235.76848   -444.70542    216009.12   -18644.221    1371.1258   -20015.347    14.537461   0.94393226 
    4300    237.84329   -336.59593    216009.12   -18678.798     1383.192    -20061.99    14.995297   0.94393226 
    4400    233.67322   -344.09879    216009.12   -18642.981    1358.9408   -20001.922    15.464048   0.94393226 
    4500    239.47399   -131.63669    216009.12   -18684.939    1392.6755   -20077.615    15.697794   0.94393226 
    4600    238.98775   -251.63466    216009.12   -18740.599    1389.8477   -20130.446    16.375085   0.94393226 
    4700     237.9541    -267.1271    216009.12   -18676.139    1383.8364   -20059.976    17.150593   0.94393226 
    4800    242.55255   -262.96544    216009.12   -18648.936     1410.579   -20059.515    17.742619   0.94393226 
    4900    242.86593   -381.91418    216009.12   -18594.221    1412.4015   -20006.622    18.073479   0.94393226 
    5000    240.48988   -248.49149    216009.12   -18637.202    1398.5834   -20035.785    18.375064   0.94393226 
    5100     241.9582   -378.01578    216009.12   -18613.858    1407.1225   -20020.981    19.056029   0.94393226 
    5200     244.1652   -185.41923    216009.12     -18640.5    1419.9575   -20060.458    19.532997   0.94393226 
    5300    238.27302   -200.11535    216009.12   -18697.948    1385.6911   -20083.639    19.789273   0.94393226 
    5400    236.21606   -343.25942    216009.12   -18688.258    1373.7288   -20061.987    19.832287   0.94393226 
    5500    238.07582   -374.86822    216009.12   -18683.617    1384.5443   -20068.161      19.7652   0.94393226 
    5600     238.4729   -237.47387    216009.12   -18720.268    1386.8536   -20107.122    20.138614   0.94393226 
    5700     242.8509   -267.96091    216009.12   -18678.839    1412.3141   -20091.153    20.497692   0.94393226 
    5800     233.1993   -267.85463    216009.12   -18668.442    1356.1846   -20024.626    20.853133   0.94393226 
    5900      240.945   -279.34471    216009.12   -18698.666    1401.2302   -20099.896    21.154481   0.94393226 
    6000     236.8394   -298.62958    216009.12   -18701.176    1377.3538    -20078.53    21.313036   0.94393226 
    6100    238.47388   -123.60285    216009.12   -18727.489    1386.8593   -20114.348    21.485975   0.94393226 
    6200     236.8339   -257.65932    216009.12   -18710.187    1377.3218   -20087.509    21.696317   0.94393226 
    6300    240.87459   -452.60443    216009.12   -18658.637    1400.8207   -20059.457    21.845452   0.94393226 
    6400    236.17337   -313.47292    216009.12   -18685.338    1373.4805   -20058.818    22.138857   0.94393226 
    6500    234.12163   -319.53986    216009.12   -18699.903    1361.5485   -20061.452    22.020493   0.94393226 
    6600    233.08412   -190.38009    216009.12   -18732.093    1355.5148   -20087.608    22.311111   0.94393226 
    6700    230.20785   -256.82219    216009.12    -18740.26    1338.7876   -20079.047    22.638968   0.94393226 
    6800    238.42693     -495.063    216009.12   -18719.198    1386.5862   -20105.784    22.909237   0.94393226 
    6900    243.72728   -159.07779    216009.12   -18683.653    1417.4107   -20101.063    23.414283   0.94393226 
    7000    236.66776   -196.58401    216009.12   -18682.179    1376.3556   -20058.535    23.838925   0.94393226 
    7100    235.88062   -299.49879    216009.12   -18693.756     1371.778   -20065.534    24.211679   0.94393226 
    7200    239.01717   -417.52516    216009.12   -18736.027    1390.0188   -20126.046     24.58145   0.94393226 
    7300    231.31999   -365.76718    216009.12    -18750.61    1345.2554   -20095.865    24.974795   0.94393226 
    7400    236.14117   -336.70371    216009.12   -18714.824    1373.2932   -20088.117    25.153947   0.94393226 
    7500    232.50729   -259.76107    216009.12   -18697.538    1352.1602   -20049.698    25.353496   0.94393226 
    7600      237.646   -173.70226    216009.12   -18674.225    1382.0447    -20056.27    25.620294   0.94393226 
    7700    244.45817   -265.15174    216009.12   -18679.871    1421.6613   -20101.532    25.977193   0.94393226 
    7800    233.54877   -366.85806    216009.12   -18740.168     1358.217   -20098.385    26.492008   0.94393226 
    7900    234.85412   -408.48119    216009.12   -18697.097    1365.8083   -20062.905    26.815476   0.94393226 
    8000      245.139   -334.93273    216009.12   -18638.296    1425.6207   -20063.917    26.895366   0.94393226 
    8100    243.92164   -278.72002    216009.12   -18638.918     1418.541   -20057.459    27.407204   0.94393226 
    8200    241.98712   -426.55829    216009.12   -18650.151    1407.2907   -20057.441    27.834751   0.94393226 
    8300     245.9519   -224.77588    216009.12   -18619.886    1430.3482   -20050.234    28.435738   0.94393226 
    8400    240.95908   -83.898703    216009.12   -18607.162    1401.3121   -20008.474    28.848726   0.94393226 
    8500    241.03873    -299.1058    216009.12   -18634.863    1401.7753   -20036.639    29.196346   0.94393226 
    8600    239.28553   -297.94566    216009.12   -18651.528    1391.5794   -20043.107     29.15599   0.94393226 
    8700    240.48615   -356.21079    216009.12   -18672.284    1398.5617   -20070.846    29.345265   0.94393226 
    8800    242.28187   -366.06846    216009.12   -18675.603    1409.0048   -20084.608    29.795574   0.94393226 
    8900    240.69453   -356.33055    216009.12   -18715.846    1399.7736    -20115.62     29.98618   0.94393226 
    9000    242.52804    -260.5398    216009.12   -18686.077    1410.4365   -20096.513    30.121269   0.94393226 
    9100    239.02834   -268.87238    216009.12   -18707.008    1390.0838   -20097.092    30.381066   0.94393226 
    9200    243.87743   -436.59906    216009.12   -18660.297    1418.2839   -20078.581    30.844593   0.94393226 
    9300    236.90417   -369.14192    216009.12   -18712.892    1377.7305   -20090.623    31.372344   0.94393226 
    9400    236.25528   -435.67151    216009.12   -18692.444    1373.9568   -20066.401    31.826204   0.94393226 
    9500    237.45133   -405.68971    216009.12   -18728.153    1380.9126   -20109.065    32.047765   0.94393226 
    9600    239.87452   -212.41769    216009.12   -18736.729    1395.0048   -20131.733    32.227092   0.94393226 
    9700    243.56241   -307.75207    216009.12   -18708.542    1416.4519   -20124.994    32.625733   0.94393226 
    9800    243.08361   -239.89743    216009.12   -18656.514    1413.6674   -20070.181     33.14627   0.94393226 
    9900    241.73249   -301.00283    216009.12   -18674.149    1405.8099   -20079.959    33.182995   0.94393226 
   10000    235.07042   -346.08498    216009.12   -18667.742    1367.0662   -20034.808    33.471536   0.94393226 
Loop time of 14.6096 on 160 procs for 10000 steps with 9248 atoms

Performance: 295.696 ns/day, 0.081 hours/ns, 684.482 timesteps/s
97.7% CPU use with 160 MPI tasks x no OpenMP threads

MPI task timing breakdown:
Section |  min time  |  avg time  |  max time  |%varavg| %total
---------------------------------------------------------------
Pair    | 0.00047064 | 2.9776     | 12.093     | 237.3 | 20.38
Neigh   | 0.00033379 | 0.096128   | 0.36483    |  39.4 |  0.66
Comm    | 0.018397   | 3.5443     | 11.847     | 219.1 | 24.26
Output  | 0.17602    | 0.17621    | 0.18313    |   0.1 |  1.21
Modify  | 0.43638    | 7.6522     | 14.253     | 219.8 | 52.38
Other   |            | 0.1632     |            |       |  1.12

Nlocal:    57.8 ave 196 max 0 min
Histogram: 72 24 24 0 0 0 0 0 13 27
Nghost:    535.475 ave 927 max 0 min
Histogram: 24 0 0 8 8 42 30 16 21 11
Neighs:    0 ave 0 max 0 min
Histogram: 160 0 0 0 0 0 0 0 0 0
FullNghs:  5907.85 ave 23626 max 0 min
Histogram: 104 16 0 0 0 0 0 1 20 19

Total # of neighbors = 945256
Ave neighs/atom = 102.212
Neighbor list builds = 574
Dangerous builds = 0
write_data 	    ${DIR}/data.${NAME}_eq
write_data 	    run_25/data.${NAME}_eq
write_data 	    run_25/data.ibeam_cooling_25_eq

undump              1
unfix               4



################################################
#######         Run Simulation         #########
################################################

reset_timestep      0
timestep	    10.0
log                 ${DIR}/log.run_${NAME}
log                 run_25/log.run_${NAME}
log                 run_25/log.run_ibeam_cooling_25
