
### Dimensions ###


### IMPORT ATOMS ###
read_data ../Box_Setup/data.Ibeam_240K
  orthogonal box = (0 0 0) to (189.989 26.9999 39.8504)
  16 by 2 by 2 MPI processor grid
  reading atoms ...
  8482 atoms
  reading velocities ...
  8482 velocities
group water type 2
2436 atoms in group water
group graphite type 1
6046 atoms in group graphite


# Define potential
#
pair_style          sw
pair_coeff * * MLC_e.sw C mW

# Add velocity/set timestep
#

fix		1 graphite setforce 0.0 0.0 0.0
velocity 	graphite set 0.0 0.0 0.0
velocity            water create ${START_TEMP} ${SEED} rot yes dist gaussian
velocity            water create 240 ${SEED} rot yes dist gaussian
velocity            water create 240 6233 rot yes dist gaussian
timestep            5.0

# Define output
#
compute 1 water msd
compute 2 water temp


thermo	            100
thermo_style custom step c_2 press vol etotal ke pe c_1[4] density

# Neighbor lists
#
neigh_modify        delay 0 every 1 check yes


# Set fixes
#
fix                 2 water momentum 10 linear 1 1 1 rescale
fix                 3 all nve
fix                 4 water temp/csvr ${START_TEMP} ${START_TEMP} 500.0 928347
fix                 4 water temp/csvr 240 ${START_TEMP} 500.0 928347
fix                 4 water temp/csvr 240 240 500.0 928347

# Run 0.05 ns equilibration
#
dump                1 all custom 100 ${DIR}/eq.${NAME}.dump id type x y z vx vy vz
dump                1 all custom 100 run_9/eq.${NAME}.dump id type x y z vx vy vz
dump                1 all custom 100 run_9/eq.ibeam_cooling_9.dump id type x y z vx vy vz
run                 10000
Neighbor list info ...
  update every 1 steps, delay 0 steps, check yes
  max neighbors/atom: 2000, page size: 100000
  master list distance cutoff = 6.67472
  ghost atom cutoff = 6.67472
  binsize = 3.33736, bins = 57 9 12
  1 neighbor lists, perpetual/occasional/extra = 1 0 0
  (1) pair sw, perpetual
      attributes: full, newton on
      pair build: full/bin/atomonly
      stencil: full/bin/3d
      bin: standard
Per MPI rank memory allocation (min/avg/max) = 3.381 | 4.313 | 4.753 Mbytes
Step c_2 Press Volume TotEng KinEng PotEng c_1[4] Density 
       0          240   -262.64038    204420.41   -23347.773    1741.9854   -25089.758            0   0.94632332 
     100    237.09001    10.385282    204420.41   -23341.483    1720.8639   -25062.347   0.81692551   0.94632332 
     200    239.14985   -217.25779    204420.41    -23374.03    1735.8148   -25109.845    1.2184122   0.94632332 
     300    233.36117   -139.82331    204420.41   -23373.236    1693.7989   -25067.035     1.609481   0.94632332 
     400    237.87466   -336.78871    204420.41    -23376.63    1726.5591   -25103.189    1.9561644   0.94632332 
     500    238.17984   -424.08058    204420.41   -23358.487    1728.7742   -25087.261     2.383751   0.94632332 
     600    248.08728   -311.97619    204420.41   -23294.423    1800.6851   -25095.108    2.7809572   0.94632332 
     700    242.73871    -311.5979    204420.41   -23296.942    1761.8637   -25058.806    3.1349322   0.94632332 
     800    242.51119   -364.41725    204420.41   -23288.011    1760.2123   -25048.224    3.3970586   0.94632332 
     900    242.10665   -473.40633    204420.41   -23322.365    1757.2761   -25079.641    3.8133872   0.94632332 
    1000    246.98352   -431.47657    204420.41   -23350.621    1792.6737   -25143.295    4.1840011   0.94632332 
    1100    243.27705   -481.10538    204420.41   -23330.203    1765.7711   -25095.974    4.5388698   0.94632332 
    1200    240.49319   -369.40667    204420.41   -23322.535    1745.5651     -25068.1    4.7787614   0.94632332 
    1300    244.18255   -314.79714    204420.41     -23275.4    1772.3435   -25047.743    5.0200843   0.94632332 
    1400    245.42869   -239.58859    204420.41   -23313.098    1781.3883   -25094.486    5.4080704   0.94632332 
    1500    235.90684   -238.12714    204420.41   -23338.419    1712.2761   -25050.695    5.7570887   0.94632332 
    1600    242.60448     -275.694    204420.41   -23311.681    1760.8894    -25072.57    6.0422167   0.94632332 
    1700    235.85281   -345.23287    204420.41   -23328.851     1711.884   -25040.735    6.3451741   0.94632332 
    1800    241.01318   -448.63095    204420.41   -23299.192    1749.3393   -25048.531    6.4115251   0.94632332 
    1900    242.83131   -524.53548    204420.41   -23253.865    1762.5358   -25016.401    6.7880436   0.94632332 
    2000    245.53613   -390.84666    204420.41   -23227.993    1782.1682   -25010.162    7.1708075   0.94632332 
    2100    243.25897   -380.88524    204420.41   -23336.583    1765.6399   -25102.223    7.4565991   0.94632332 
    2200    239.16623   -371.47035    204420.41   -23304.511    1735.9337   -25040.444    7.7801838   0.94632332 
    2300    238.20925   -357.72097    204420.41   -23268.791    1728.9877   -24997.778     8.226767   0.94632332 
    2400    241.36138   -84.808853    204420.41   -23261.148    1751.8666   -25013.014    8.4658372   0.94632332 
    2500    234.73348   -269.47287    204420.41   -23296.287    1703.7596   -25000.047    8.9300562   0.94632332 
    2600    241.13458   -234.11661    204420.41   -23303.978    1750.2205   -25054.199    9.3365338   0.94632332 
    2700    239.64123   -432.55282    204420.41   -23291.264    1739.3814   -25030.645    9.5426783   0.94632332 
    2800    245.49385   -500.82119    204420.41   -23229.881    1781.8612   -25011.743    9.8935121   0.94632332 
    2900    238.08867   -338.98404    204420.41   -23232.909    1728.1125   -24961.022    10.278543   0.94632332 
    3000    242.17281   -553.78232    204420.41   -23218.516    1757.7562   -24976.272    10.600525   0.94632332 
    3100    241.13485   -397.34854    204420.41   -23194.261    1750.2224   -24944.484    11.014939   0.94632332 
    3200    237.36292   -289.86694    204420.41   -23257.205    1722.8447   -24980.049    11.409781   0.94632332 
    3300    231.39786   -325.16375    204420.41   -23330.877    1679.5487   -25010.426    11.766713   0.94632332 
    3400    241.67171    -448.6188    204420.41   -23281.067    1754.1191   -25035.186    12.065925   0.94632332 
    3500    238.94939   -484.86985    204420.41   -23274.834    1734.3598   -25009.194    12.673927   0.94632332 
    3600    248.99925   -513.83139    204420.41   -23280.173    1807.3044   -25087.477    13.172861   0.94632332 
    3700    245.29185   -337.36386    204420.41   -23264.595    1780.3951    -25044.99    13.672555   0.94632332 
    3800    239.52477   -370.10965    204420.41   -23261.799    1738.5361   -25000.335    14.002128   0.94632332 
    3900      247.271   -346.59793    204420.41   -23263.361    1794.7603   -25058.121    14.177054   0.94632332 
    4000    239.73327   -300.83336    204420.41   -23313.942    1740.0494   -25053.992    14.630994   0.94632332 
    4100    232.69421   -308.96231    204420.41   -23293.297    1688.9579   -24982.255    14.823312   0.94632332 
    4200    238.22866   -294.83886    204420.41   -23272.467    1729.1285   -25001.596    15.318443   0.94632332 
    4300    239.45122   -286.69564    204420.41   -23332.008    1738.0022    -25070.01    15.557151   0.94632332 
    4400    239.34534   -188.72284    204420.41   -23290.084    1737.2337   -25027.318    15.963676   0.94632332 
    4500    239.89395   -439.74352    204420.41   -23318.806    1741.2156   -25060.021    15.991076   0.94632332 
    4600    239.08956   -242.28223    204420.41   -23371.606    1735.3772   -25106.983    16.253969   0.94632332 
    4700    239.11416   -322.20336    204420.41   -23300.145    1735.5557   -25035.701    16.660916   0.94632332 
    4800    236.64968   -254.99521    204420.41   -23269.681    1717.6678   -24987.349    17.218992   0.94632332 
    4900    243.26911   -299.93578    204420.41   -23215.656    1765.7135   -24981.369    17.616649   0.94632332 
    5000    242.01779   -519.14988    204420.41   -23270.026    1756.6311   -25026.657    18.103634   0.94632332 
    5100    245.38339   -324.48267    204420.41   -23234.431    1781.0595    -25015.49    18.691393   0.94632332 
    5200    241.18554   -362.20853    204420.41   -23284.426    1750.5904   -25035.017    19.104881   0.94632332 
    5300    237.06171   -359.47442    204420.41   -23349.387    1720.6585   -25070.046    19.785697   0.94632332 
    5400    237.96521    -195.1041    204420.41   -23335.621    1727.2164   -25062.837    20.448755   0.94632332 
    5500    234.18429   -277.79442    204420.41   -23336.677    1699.7734    -25036.45    20.903828   0.94632332 
    5600    238.64464   -265.11779    204420.41   -23353.404    1732.1478   -25085.552    21.361078   0.94632332 
    5700    236.64404   -335.97743    204420.41   -23321.625    1717.6269   -25039.252    21.598573   0.94632332 
    5800    244.42585   -287.80971    204420.41   -23289.735    1774.1094   -25063.844     21.94564   0.94632332 
    5900    237.82359   -421.90091    204420.41   -23306.399    1726.1884   -25032.587    22.284285   0.94632332 
    6000    236.96103   -285.96274    204420.41   -23307.864    1719.9277   -25027.792     23.02835   0.94632332 
    6100    233.53108   -266.01817    204420.41   -23317.186    1695.0322   -25012.218     23.32406   0.94632332 
    6200    234.54394   -270.09352    204420.41   -23320.934    1702.3838   -25023.317    23.535653   0.94632332 
    6300    240.96644   -270.54108    204420.41    -23251.06    1749.0001    -25000.06    23.754961   0.94632332 
    6400    241.41556   -362.83214    204420.41   -23296.114    1752.2599   -25048.374    24.279573   0.94632332 
    6500    236.83204   -400.79106    204420.41   -23322.132    1718.9915   -25041.123    24.787103   0.94632332 
    6600    242.08684   -340.48781    204420.41   -23333.288    1757.1322    -25090.42    25.007177   0.94632332 
    6700    237.66699    -271.6004    204420.41   -23364.988    1725.0517    -25090.04    24.980286   0.94632332 
    6800     234.4594   -242.29574    204420.41   -23349.424    1701.7702   -25051.194    25.073462   0.94632332 
    6900    237.34507    -330.8666    204420.41   -23306.983    1722.7152   -25029.698    25.121985   0.94632332 
    7000       234.97   -293.24935    204420.41   -23309.078    1705.4763   -25014.554    25.218611   0.94632332 
    7100    237.08885   -228.57844    204420.41   -23315.168    1720.8554   -25036.023    25.479774   0.94632332 
    7200    236.32723    -256.0722    204420.41   -23370.878    1715.3274   -25086.206    25.689837   0.94632332 
    7300    229.85646   -132.25729    204420.41    -23394.53    1668.3608   -25062.891    26.219994   0.94632332 
    7400    240.47023   -357.50264    204420.41   -23364.295    1745.3984   -25109.693    26.346935   0.94632332 
    7500    241.11351   -491.96796    204420.41   -23339.572    1750.0676    -25089.64    26.798116   0.94632332 
    7600    248.42188   -290.34329    204420.41   -23297.611    1803.1137   -25100.724    27.156347   0.94632332 
    7700    238.16465   -398.32904    204420.41   -23312.408    1728.6639   -25041.072    27.525306   0.94632332 
    7800     229.8472    -473.3654    204420.41    -23363.59    1668.2936   -25031.884     27.81593   0.94632332 
    7900    236.34792   -273.10217    204420.41   -23327.589    1715.4776   -25043.066    27.857545   0.94632332 
    8000    237.89132   -396.68994    204420.41   -23261.246    1726.6801   -24987.926    28.062869   0.94632332 
    8100    248.30195   -228.47496    204420.41     -23254.7    1802.2432   -25056.943     28.29171   0.94632332 
    8200    241.31758    -247.0301    204420.41   -23289.861    1751.5487    -25041.41    28.489579   0.94632332 
    8300    242.27504   -421.54943    204420.41   -23247.238    1758.4982   -25005.736    28.689656   0.94632332 
    8400    246.74704   -381.92561    204420.41   -23223.453    1790.9572   -25014.411     29.11981   0.94632332 
    8500    246.53199   -334.02464    204420.41   -23262.755    1789.3964   -25052.151    29.406433   0.94632332 
    8600    244.81869   -193.16395    204420.41   -23285.267    1776.9607   -25062.228    29.251758   0.94632332 
    8700    236.60931   -211.76916    204420.41   -23304.339    1717.3748   -25021.714    29.496816   0.94632332 
    8800    239.34164   -295.50146    204420.41   -23297.157    1737.2068   -25034.364    29.633199   0.94632332 
    8900    238.08808    -507.7636    204420.41   -23321.721    1728.1081   -25049.829    30.065761   0.94632332 
    9000    239.33338   -502.77611    204420.41   -23266.828    1737.1469   -25003.975    30.075224   0.94632332 
    9100    242.78831    -548.3919    204420.41   -23286.189    1762.2237   -25048.413    30.722626   0.94632332 
    9200    243.84966   -486.82011    204420.41   -23224.897    1769.9273   -24994.824    31.320304   0.94632332 
    9300    237.96598    -549.7134    204420.41   -23294.535    1727.2219   -25021.757    31.489301   0.94632332 
    9400    240.69653   -543.75277    204420.41   -23269.475     1747.041   -25016.515    31.926032   0.94632332 
    9500    239.07961   -379.87739    204420.41   -23296.636     1735.305   -25031.941    32.103996   0.94632332 
    9600     237.3539   -327.55721    204420.41   -23302.713    1722.7793   -25025.493    32.497583   0.94632332 
    9700    237.29873   -325.37826    204420.41   -23255.267    1722.3789   -24977.646    32.670856   0.94632332 
    9800    244.92792   -306.54214    204420.41   -23187.277    1777.7536    -24965.03     33.39961   0.94632332 
    9900    239.18618    -354.6094    204420.41   -23218.065    1736.0785   -24954.144    34.077285   0.94632332 
   10000    241.35207   -300.15158    204420.41   -23231.331    1751.7991    -24983.13    34.892588   0.94632332 
Loop time of 10.6594 on 64 procs for 10000 steps with 8482 atoms

Performance: 405.276 ns/day, 0.059 hours/ns, 938.138 timesteps/s
100.0% CPU use with 64 MPI tasks x no OpenMP threads

MPI task timing breakdown:
Section |  min time  |  avg time  |  max time  |%varavg| %total
---------------------------------------------------------------
Pair    | 0.00083697 | 3.91       | 8.6653     | 169.7 | 36.68
Neigh   | 0.0049688  | 0.23736    | 0.52685    |  36.7 |  2.23
Comm    | 0.19377    | 1.9048     | 7.0724     | 125.1 | 17.87
Output  | 0.15992    | 0.15998    | 0.16071    |   0.0 |  1.50
Modify  | 0.36604    | 4.3381     | 10.188     | 197.0 | 40.70
Other   |            | 0.1092     |            |       |  1.02

Nlocal:    132.531 ave 265 max 0 min
Histogram: 16 0 3 2 11 0 10 7 6 9
Nghost:    807.453 ave 1145 max 520 min
Histogram: 16 9 6 1 3 3 2 0 17 7
Neighs:    0 ave 0 max 0 min
Histogram: 64 0 0 0 0 0 0 0 0 0
FullNghs:  13309.3 ave 29202 max 0 min
Histogram: 18 14 0 0 0 0 2 12 8 10

Total # of neighbors = 851796
Ave neighs/atom = 100.424
Neighbor list builds = 582
Dangerous builds = 0
write_data 	    ${DIR}/data.${NAME}_eq
write_data 	    run_9/data.${NAME}_eq
write_data 	    run_9/data.ibeam_cooling_9_eq

undump              1
unfix               4



################################################
#######         Run Simulation         #########
################################################

reset_timestep      0
timestep	    10.0
log                 ${DIR}/log.run_${NAME}
log                 run_9/log.run_${NAME}
log                 run_9/log.run_ibeam_cooling_9
