
# Set production fixes - Nose/Hoover
#
fix                 4 water temp/csvr ${START_TEMP} ${END_TEMP} 500.0 928347
fix                 4 water temp/csvr 240 ${END_TEMP} 500.0 928347
fix                 4 water temp/csvr 240 227 500.0 928347


## divide "droplet" into core and surface
#region		core_reg cylinder z 135 135 44.6 20 INF units box
#region		surface_reg cylinder z 135 135 44.6 20 INF units box side out
#group		core dynamic all region core_reg
#group		surface dynamic all region surface_reg

## compute pressure core
#compute        peratom_core core stress/atom NULL
#compute        p_core core reduce sum c_peratom_core[1] c_peratom_core[2] c_peratom_core[3]
#variable       press_core equal -(c_p_core[1]+c_p_core[2]+c_p_core[3])/(3*1249982.5)


## compute pressure surface
#compute        peratom_surf surface stress/atom NULL
#compute        p_surf surface reduce sum c_peratom_surf[1] c_peratom_surf[2] #c_peratom_surf[3]
#variable       press_surf equal -(c_p_surf[1]+c_p_surf[2]+c_p_surf[3])/(3*42395)

## compute total pressure of drop
compute        peratom water stress/atom NULL
compute        p water reduce sum c_peratom[1] c_peratom[2] c_peratom[3]
variable       press equal -(c_p[1]+c_p[2]+c_p[3])/(3*58301)


# compute order parameter
compute        3 all orientorder/atom nnn NULL cutoff 3.5

# compute center of mass of bridge
compute 	4 water com

# Run simulation
thermo_style        custom step c_2 press vol etotal ke pe v_press c_1[4] c_4[*]
thermo              200
dump		     1 water custom 400 ${DIR}/prod.${NAME}.dump id type x y z vx vy vz c_3[*] c_peratom[*]
dump		     1 water custom 400 run_9/prod.${NAME}.dump id type x y z vx vy vz c_3[*] c_peratom[*]
dump		     1 water custom 400 run_9/prod.ibeam_cooling_9.dump id type x y z vx vy vz c_3[*] c_peratom[*]
run                 ${STEPS}
run                 5200000
Neighbor list info ...
  update every 1 steps, delay 0 steps, check yes
  max neighbors/atom: 2000, page size: 100000
  master list distance cutoff = 6.67472
  ghost atom cutoff = 6.67472
  binsize = 3.33736, bins = 57 9 12
  2 neighbor lists, perpetual/occasional/extra = 1 1 0
  (1) pair sw, perpetual
      attributes: full, newton on
      pair build: full/bin/atomonly
      stencil: full/bin/3d
      bin: standard
  (2) compute orientorder/atom, occasional, copy from (1)
      attributes: full, newton on
      pair build: copy
      stencil: none
      bin: none
Per MPI rank memory allocation (min/avg/max) = 6.163 | 6.747 | 7.286 Mbytes
Step c_2 Press Volume TotEng KinEng PotEng v_press c_1[4] c_4[1] c_4[2] c_4[3] 
       0    241.35207   -300.15158    204420.41   -23231.331    1751.7991    -24983.13    -530.2442    34.892588    95.088874    14.525483    27.861942 
     200    237.75189   -333.46887    204420.41   -23233.411     1725.668   -24959.079   -650.45401    37.265838    95.088539    14.524959    27.849524 
     400    237.64364   -272.66081    204420.41   -23223.106    1724.8823   -24947.988   -431.73721    39.140476    95.088795    14.528794    27.839454 
     600    246.47143    -320.7234    204420.41   -23091.806    1788.9568   -24880.763   -599.31899     41.19834    95.087744    14.527432    27.829232 
     800    240.42239   -414.67272    204420.41   -23132.595    1745.0512   -24877.646   -913.42766    43.281152    95.087199    14.525156     27.83201 
    1000    238.34789   -322.38909    204420.41   -23207.356     1729.994    -24937.35   -593.56697    45.460367    95.087429    14.525381     27.85762 
    1200    241.05677   -348.88034    204420.41   -23213.214    1749.6557    -24962.87   -666.74809    47.535986    95.087755    14.526993    27.852536 
    1400    239.16578   -258.57686    204420.41   -23186.888    1735.9304   -24922.819   -394.50108    49.892525    95.088918    14.529234    27.857976 
    1600    240.71401   -341.01499    204420.41   -23170.427    1747.1679   -24917.595   -648.87772    52.053015    95.089367    14.530618    27.875124 
    1800    239.29503   -69.325253    204420.41   -23169.318    1736.8685   -24906.187    252.96171    55.093419    95.090264    14.532213    27.876189 
    2000    240.39416   -345.33879    204420.41   -23104.787    1744.8463   -24849.633   -697.37364    58.091871     95.09106    14.531172    27.872558 
    2200    235.89769   -319.27485    204420.41   -23167.757    1712.2097   -24879.967   -596.93048    60.537512    95.091396    14.531229     27.87997 
    2400    236.27969   -193.95589    204420.41   -23114.571    1714.9824   -24829.553   -198.83687    62.584101    95.090146    14.530914    27.876965 
    2600    236.06642   -428.67879    204420.41   -23151.728    1713.4344   -24865.162   -987.01036    65.223984    95.090519    14.529274    27.867071 
    2800    245.68066    -389.1993    204420.41   -23081.765    1783.2172   -24864.982   -855.71233    67.815536    95.090894    14.525329    27.841311 
    3000    245.02118   -263.17372    204420.41   -23094.617    1778.4305   -24873.048   -401.90612    69.920672    95.091449     14.52623     27.82739 
    3200    237.69662   -590.78417    204420.41    -23200.63    1725.2668   -24925.896   -1540.6691    72.559567    95.092117    14.524231    27.841894 
    3400    242.70941   -187.28678    204420.41   -23226.164    1761.6511   -24987.815   -97.705052    74.815394    95.094095    14.524939    27.858704 
    3600    238.09535   -537.12208    204420.41   -23200.897    1728.1609   -24929.058   -1361.8827    78.206414    95.093933    14.523881    27.844347 
    3800     238.5835    -205.6567    204420.41   -23159.725     1731.704   -24891.429   -157.66563    80.393369    95.093825    14.523558    27.860464 
    4000    237.15778   -160.96045    204420.41   -23232.839    1721.3558   -24954.195   -27.335458    82.869224    95.093257    14.522364    27.858862 
    4200    238.84653   -355.58585    204420.41   -23206.529    1733.6132   -24940.142   -689.12681    85.620377    95.094894    14.523368      27.8537 
    4400    242.68761   -344.74294    204420.41   -23215.409    1761.4928   -24976.902   -675.49409    87.646007    95.094101    14.526588    27.858431 
    4600    236.89094   -432.70074    204420.41   -23299.896     1719.419   -25019.315   -990.76176    88.679988    95.093414    14.529908    27.857032 
    4800    241.16475   -237.33483    204420.41   -23186.389    1750.4394   -24936.829   -279.75438    89.446645    95.091846    14.529673    27.856045 
    5000    237.71994   -425.06475    204420.41   -23214.541    1725.4361   -24939.977   -996.84846    92.925476    95.089666    14.528374    27.868285 
    5200    236.30495   -359.19268    204420.41   -23210.767    1715.1657   -24925.933   -763.91635    94.772784     95.08751    14.524245    27.876584 
    5400    242.01466   -210.02129    204420.41   -23230.176    1756.6084   -24986.784   -229.32181    94.753973    95.086419    14.523129    27.879264 
    5600    236.66442   -443.11889    204420.41   -23259.583    1717.7748   -24977.358   -984.56153    95.445026     95.08685    14.521625    27.883482 
    5800    238.51324   -359.14582    204420.41   -23188.907    1731.1941   -24920.101   -715.81421     96.53647    95.087541     14.52274    27.898673 
    6000     235.9106   -265.59694    204420.41   -23227.335    1712.3034   -24939.638   -406.42216    95.860315    95.087318     14.52304    27.914235 
    6200    239.72875   -382.91044    204420.41   -23231.969    1740.0166   -24971.985   -813.78543    96.681584    95.086613    14.523062     27.89088 
    6400    239.78056    -168.5458    204420.41   -23197.403    1740.3926   -24937.796   -114.95482    98.364695    95.086719    14.526265     27.86686 
    6600    231.81969   -416.44577    204420.41   -23209.403    1682.6105   -24892.013   -978.49812    100.98255    95.087449    14.526986    27.868047 
    6800    238.93591   -233.97175    204420.41    -23260.66    1734.2619   -24994.922   -307.86992    103.83681    95.088678    14.525955    27.870876 
    7000    240.60731   -288.00108    204420.41   -23227.871    1746.3934   -24974.265   -480.79362    106.27222    95.088078    14.528054    27.867854 
    7200    238.69154   -209.69577    204420.41   -23304.307    1732.4882   -25036.795   -217.85241    106.69832    95.088161    14.528534    27.869478 
    7400    235.25881   -391.19229    204420.41   -23278.495    1707.5726   -24986.067   -896.19094    108.40399    95.088932    14.528933    27.854038 
    7600    240.51165   -279.18362    204420.41   -23223.376    1745.6991   -24969.075   -443.62736    109.68284    95.091236    14.529983    27.854332 
    7800    232.91827   -342.31318    204420.41   -23311.977    1690.5842   -25002.561   -677.18314     110.7394    95.089835    14.529916    27.849393 
    8000    241.61707   -365.38446    204420.41   -23182.274    1753.7225   -24935.997   -809.15786    112.51984    95.090037    14.532214     27.84987 
    8200    241.01642   -228.95855    204420.41    -23217.23    1749.3628   -24966.593   -315.24607    112.99951    95.089113    14.534706    27.853012 
    8400    240.97454   -349.67208    204420.41    -23171.89    1749.0589   -24920.949   -728.76003     115.1441    95.087574    14.532379    27.864699 
    8600    243.72374     -261.336    204420.41   -23229.024    1769.0133   -24998.037   -420.42824    117.97384    95.086033    14.531911    27.893997 
    8800    236.98565   -315.70257    204420.41   -23232.975    1720.1064   -24953.082   -575.06763    121.66594    95.084108    14.531057    27.919043 
    9000    242.37874   -207.92552    204420.41   -23261.298    1759.2509   -25020.549   -214.34068    123.98601    95.081748    14.532873    27.908949 
    9200    247.51981   -281.12801    204420.41   -23228.758    1796.5662   -25025.325   -434.61978    126.21188    95.082849    14.533868    27.885225 
    9400    242.45357   -188.88735    204420.41   -23272.244    1759.7941   -25032.038   -155.34827    127.81901    95.084564    14.533763    27.892942 
    9600    236.40406   -227.59929    204420.41   -23298.289     1715.885   -25014.174   -291.71637    130.59219    95.086437    14.534141    27.903541 
    9800    245.43708   -521.45656    204420.41    -23155.04    1781.4492   -24936.489   -1334.3081    133.82116    95.085581    14.535827    27.914768 
   10000    238.38068   -240.16647    204420.41   -23210.147    1730.2319   -24940.379   -338.86674    135.82375    95.084722    14.536028    27.905391 
   10200    243.80484   -570.58621    204420.41   -23163.464     1769.602   -24933.066   -1442.2825    136.42439    95.084291    14.537053    27.900015 
   10400    245.26862   -279.41917    204420.41   -23181.818    1780.2265   -24962.045   -485.35944    136.50333    95.082021    14.538033    27.928794 
   10600    238.18221    -329.5424    204420.41   -23243.565    1728.7914   -24972.356   -598.75534    134.76734    95.082426    14.537998     27.94341 
   10800    237.71924   -344.66767    204420.41   -23291.579     1725.431    -25017.01   -692.65184    135.72718    95.082612    14.539774    27.934965 
   11000    238.78755   -352.33945    204420.41   -23279.659    1733.1851   -25012.844   -744.37255    136.23579    95.081843    14.538914    27.936467 
   11200     231.9658   -326.12176    204420.41    -23282.19     1683.671   -24965.861    -622.4893    137.49507    95.080962    14.538294    27.937962 
   11400    238.66812   -373.01699    204420.41   -23254.879    1732.3183   -24987.198   -773.01992    138.90732    95.080262    14.537156    27.929085 
   11600    245.88616   -227.95328    204420.41   -23177.722    1784.7088    -24962.43   -319.86179    139.66851    95.082609    14.534172    27.925485 
   11800    242.64099   -440.67221    204420.41    -23187.72    1761.1544   -24948.874   -1007.3646    143.05183    95.082209    14.534841    27.941362 
   12000    247.66699   -164.56776    204420.41   -23201.298    1797.6345   -24998.933   -66.121345    144.95096    95.081082     14.53565    27.938398 
   12200    237.61641   -323.69512    204420.41   -23207.137    1724.6847   -24931.821   -579.47501    145.09674    95.079972     14.53584    27.925437 
   12400    238.67793   -178.36485    204420.41   -23243.884    1732.3894   -24976.273   -112.13729    145.51709    95.077174    14.532231    27.939418 
   12600    238.73596   -528.45186    204420.41   -23191.188    1732.8107   -24923.999   -1349.6947    147.46935    95.076407    14.528844    27.944611 
   12800    243.12904   -355.85006    204420.41   -23238.865    1764.6968   -25003.562     -704.683    150.03337    95.075931    14.529455    27.952006 
   13000     234.9972    -261.3586    204420.41   -23281.641    1705.6737   -24987.314   -381.75327    151.03189    95.074382    14.532426    27.951881 
   13200    237.45679   -177.06245    204420.41   -23307.076    1723.5261   -25030.602    -117.4887      151.528    95.075629    14.534333    27.954702 
   13400    233.81301   -474.23926    204420.41   -23349.817    1697.0785   -25046.896   -1106.7206    153.26208    95.075673    14.531889    27.974826 
   13600     234.7902   -165.88638    204420.41   -23306.517    1704.1713   -25010.688   -60.953342    155.03364    95.076217    14.529976    27.987604 
   13800    238.36168   -395.46356    204420.41   -23253.152    1730.0941   -24983.246   -876.81133    156.64642    95.077926     14.52894    27.978421 
   14000     245.3858   -395.96229    204420.41   -23147.922     1781.077   -24928.999   -836.86515    157.03081    95.078658    14.527737    27.979964 
   14200    237.21928    -374.1245    204420.41   -23212.167    1721.8021   -24933.969   -805.88521    156.26298    95.079366    14.525326    27.976647 
   14400    242.11705   -98.584933    204420.41   -23255.302    1757.3515   -25012.653    187.32544    157.90909    95.079598     14.52645    27.983493 
   14600     237.8948   -297.87719    204420.41    -23223.34    1726.7053   -24950.045   -554.81654    160.52207    95.079656    14.525941    27.993285 
   14800    240.01331   -205.41334    204420.41   -23157.033     1742.082   -24899.115   -215.94501    162.25974    95.078136    14.525415    28.010116 
   15000    241.83415    -584.0812    204420.41   -23237.475    1755.2981   -24992.773   -1529.6617     165.1976    95.078957    14.526002    28.014917 
   15200    236.27742   -151.24493    204420.41    -23215.68    1714.9659   -24930.646   -30.693509     169.1617    95.078454    14.526738    28.009931 
   15400    234.89603   -509.14276    204420.41   -23268.693    1704.9394   -24973.632   -1257.4742    172.99191    95.079874    14.526838    28.017291 
   15600    243.21066   -379.00306    204420.41   -23122.346    1765.2892   -24887.636   -831.16843    173.93424    95.080736    14.526629    28.002035 
   15800    243.21993   -457.13069    204420.41   -23134.962    1765.3565   -24900.319   -1079.8944    177.05858    95.083802    14.524914    28.003718 
   16000    239.40292   -332.86071    204420.41   -23228.462    1737.6516   -24966.113   -647.00091    178.51052    95.084124    14.524246     28.02706 
   16200    239.24221    -165.0855    204420.41   -23190.663    1736.4851   -24927.148   -64.936905    179.49326    95.085464    14.525072    28.064182 
   16400    235.99578   -497.00887    204420.41   -23210.882    1712.9217   -24923.804   -1272.2646    179.04327    95.083231    14.527675    28.076072 
   16600     248.2644     -400.155    204420.41   -23164.682    1801.9707   -24966.653   -913.51469    180.63344     95.08155     14.52928    28.063933 
   16800    236.11987   -118.22372    204420.41   -23204.288    1713.8223    -24918.11    130.80883    181.12649    95.081657     14.53136    28.080784 
   17000      239.639   -321.19827    204420.41   -23257.843    1739.3651   -24997.208   -626.74644    183.12458    95.081506    14.530558    28.072159 
   17200    241.27434   -288.07746    204420.41   -23225.209    1751.2349   -24976.444   -516.43666    183.21235    95.082228    14.531341    28.057809 
   17400    234.98641   -330.80749    204420.41   -23281.509    1705.5954   -24987.104    -659.4067    185.42594    95.082834    14.531885    28.059914 
   17600    247.56112   -449.64972    204420.41     -23178.1     1796.866   -24974.966   -1089.3248    188.32194     95.08266    14.535651    28.076137 
   17800    245.16237   -281.67387    204420.41   -23203.945    1779.4553     -24983.4   -465.42909    189.63853    95.080748    14.535902    28.096676 
   18000    241.83741   -508.96871    204420.41   -23176.375    1755.3218   -24931.696   -1248.3302    191.72348    95.081566    14.535551    28.103725 
   18200    238.14926   -390.18746    204420.41   -23171.171    1728.5522   -24899.724   -870.64518    194.69404    95.083442    14.534841    28.089321 
   18400    240.76994   -390.70977    204420.41   -23179.186    1747.5739    -24926.76   -886.76444    198.62871    95.082454    14.533683    28.099805 
   18600    246.57199   -437.92068    204420.41   -23184.945    1789.6867   -24974.632   -982.06487    201.21668    95.081274    14.535331    28.122298 
   18800     232.5574   -489.04148    204420.41   -23252.803     1687.965   -24940.768   -1186.1799    200.76119    95.082418    14.532508    28.112008 
   19000    243.36602   -221.26332    204420.41   -23177.998    1766.4169   -24944.414   -293.65091    197.63557    95.080234     14.53337      28.1256 
   19200    237.13844   -442.55604    204420.41   -23173.864    1721.2154    -24895.08   -1005.7038    195.82555    95.079487     14.53494    28.118608 
   19400     245.3664   -358.45774    204420.41   -23091.386    1780.9362   -24872.323   -705.84963    195.33584    95.079542    14.536809    28.129331 
   19600    243.44654    -299.6469    204420.41   -23127.263    1767.0013   -24894.264   -506.97759    196.48529    95.079215    14.538866    28.116259 
   19800    241.57021   -340.30368    204420.41   -23133.571    1753.3824   -24886.953   -625.63474    198.45183     95.07847    14.538741    28.112944 
   20000    244.55571   -439.17604    204420.41   -23133.604     1775.052   -24908.656   -1019.6028    200.51969    95.078869    14.537455    28.118465 
   20200    235.58318   -316.83583    204420.41   -23223.186    1709.9269   -24933.113   -621.34299    203.10469    95.079562    14.536771    28.115792 
   20400    237.86281   -335.88085    204420.41    -23132.96    1726.4731   -24859.433    -657.4843    203.48373    95.078259    14.537946    28.131615 
   20600    233.60267   -247.92574    204420.41   -23244.837    1695.5518   -24940.388   -327.28889    203.80231    95.076898    14.538982    28.144476 
   20800    243.60773   -422.26724    204420.41   -23149.702    1768.1713   -24917.873   -944.08373    205.48818    95.077576    14.538758    28.122759 
   21000    243.19737   -332.53304    204420.41   -23199.632    1765.1928   -24964.825   -640.23534     205.1549     95.07576    14.541137    28.113812 
   21200    237.63235   -426.33451    204420.41     -23191.4    1724.8004     -24916.2   -989.10889     205.4447    95.077652    14.540444    28.121505 
   21400    252.70866   -194.55584    204420.41    -23221.99    1834.2283   -25056.218   -168.83954    205.42824    95.077593    14.542632    28.120318 
   21600    245.89781   -504.99981    204420.41   -23117.461    1784.7933   -24902.254   -1206.5148    208.35127    95.077412    14.542436    28.108692 
   21800    236.14769   -289.81742    204420.41   -23241.806    1714.0243    -24955.83   -474.66987    209.28151    95.078087    14.544261    28.134987 
   22000    233.48999   -417.89581    204420.41   -23273.897     1694.734   -24968.631    -920.2457    210.20373    95.078149    14.545857    28.120691 
   22200    232.87438   -215.89064    204420.41   -23325.143    1690.2657   -25015.408   -238.83768    209.56907    95.077918    14.547253    28.116433 
   22400    239.40238   -532.22378    204420.41   -23180.102    1737.6477    -24917.75   -1345.0934    209.19872    95.077677    14.546545    28.117377 
   22600    242.72076   -517.52008    204420.41    -23242.13    1761.7334   -25003.863   -1295.1845    208.79003    95.076948    14.548783    28.114459 
   22800    239.20402   -198.32252    204420.41   -23241.985    1736.2079   -24978.193    -132.7813     209.2515    95.075081    14.548917    28.100083 
   23000    233.61451   -361.89041    204420.41   -23317.454    1695.6378   -25013.091   -752.29225    210.82925    95.076197     14.54945    28.087919 
   23200    241.90861   -401.78695    204420.41   -23230.502    1755.8386   -24986.341    -905.2347    212.05357    95.075793    14.553814    28.087949 
   23400    243.26203   -303.54654    204420.41   -23211.497    1765.6621   -24977.159   -511.18565      212.347    95.077721    14.555978    28.100561 
   23600    245.48368   -335.07877    204420.41   -23135.974    1781.7874   -24917.762   -631.80182    215.22494    95.075136    14.556508     28.11059 
   23800    249.55036   -354.60899    204420.41   -23183.138    1811.3045   -24994.443    -699.2939    216.89594    95.074624    14.559326    28.116789 
   24000     236.7477   -352.95204    204420.41    -23245.24    1718.3793   -24963.619   -736.93237    219.84586    95.075343    14.558981    28.120826 
   24200    239.48389   -310.04384    204420.41   -23226.957    1738.2393   -24965.197   -601.82305    221.61213    95.074344    14.556571    28.102277 
   24400    238.33408   -85.089001    204420.41   -23262.699    1729.8937   -24992.592    208.29417    224.06768    95.074243    14.554844    28.089605 
   24600    237.38103   -244.71424    204420.41   -23292.391    1722.9762   -25015.367   -281.81369    223.68455    95.075274    14.554923    28.090749 
   24800    235.86914   -237.83967    204420.41   -23289.117    1712.0025    -25001.12   -329.36903    223.60705    95.075578     14.55575    28.094648 
   25000    243.48154   -413.64921    204420.41   -23314.221    1767.2554   -25081.476   -930.46696    223.62406    95.075437    14.557883    28.091452 
   25200    232.92611   -224.51739    204420.41   -23447.812    1690.6412   -25138.453   -214.55304    223.06447    95.075113    14.563285    28.092021 
   25400    233.46078   -452.11231    204420.41   -23302.813    1694.5219   -24997.335   -1026.9684    223.48524    95.076151    14.564247    28.094447 
   25600    249.45918   -157.86742    204420.41   -23167.848    1810.6427   -24978.491  -0.49088884    223.84654    95.078043    14.566903    28.091932 
   25800    240.45771   -383.34022    204420.41   -23204.883    1745.3076    -24950.19   -823.56191    227.69371    95.078517    14.569042    28.067631 
   26000    245.22893   -326.31048    204420.41   -23242.236    1779.9384   -25022.174   -604.71015    233.41405    95.078076    14.567994    28.047962 
   26200    238.67331   -397.31784    204420.41   -23222.523    1732.3559   -24954.879   -837.25597    235.19847    95.076377       14.571    28.043825 
   26400    240.64988   -232.51181    204420.41   -23280.486    1746.7024   -25027.188    -319.5606    238.03728    95.074651    14.571829    28.043807 
   26600    247.78259   -548.22458    204420.41   -23229.755    1798.4735   -25028.229   -1397.1084    241.64286    95.073343    14.571238    28.037639 
   26800    246.24429   -570.40408    204420.41   -23249.003    1787.3081   -25036.311   -1460.4282    243.57433    95.074078    14.571815    28.016804 
   27000    244.55562   -302.38792    204420.41   -23181.207    1775.0513   -24956.258   -528.14182      245.527    95.072967    14.572998    28.009258 
   27200    240.59589   -287.74177    204420.41   -23200.301    1746.3106   -24946.612   -494.43373    246.27386    95.073179    14.572026    28.007609 
   27400    244.48734    -203.3633    204420.41   -23141.737    1774.5557   -24916.292    -172.6151    245.20906    95.073742    14.574865     28.01594 
   27600    234.48516    -368.2925    204420.41   -23311.453    1701.9572    -25013.41   -707.08479     245.7942    95.075777    14.575483    28.021862 
   27800    244.16418   -256.68688    204420.41   -23167.045    1772.2101   -24939.255   -340.28216    248.78838    95.077276    14.574597    28.037173 
   28000    232.83057   -259.18085    204420.41    -23264.87    1689.9477   -24954.818   -371.22593    251.95029    95.080099    14.571727    28.038408 
   28200    241.44166   -232.51666    204420.41   -23268.039    1752.4494   -25020.488   -288.44513    254.30017    95.079845     14.57011    28.020985 
   28400    240.64126   -233.11899    204420.41   -23266.577    1746.6398   -25013.217   -253.18631    256.81041    95.078314    14.568088    28.023306 
   28600    238.60496   -446.66547    204420.41   -23213.319    1731.8598   -24945.179   -1019.6001     257.3868    95.078833    14.570723    28.024297 
   28800    234.90096   -337.36006    204420.41   -23234.633    1704.9752   -24939.608   -625.65745    256.26115    95.078457     14.57311    28.019009 
   29000      244.681   -409.67011    204420.41   -23175.897    1775.9614   -24951.858   -907.10048    254.90693    95.077371    14.574183    28.017999 
   29200    245.51943   -336.21083    204420.41   -23140.948     1782.047   -24922.995   -657.38446    255.86855    95.075771    14.575553    28.011922 
   29400    245.54896   -311.97248    204420.41   -23209.433    1782.2612   -24991.694   -558.67843    256.87087    95.076499    14.574303    28.008885 
   29600    243.83985   -434.76126    204420.41   -23203.426    1769.8561   -24973.282   -971.57813    257.23988    95.076256    14.576916    28.010913 
   29800    237.08708   -451.78781    204420.41   -23301.564    1720.8426   -25022.407   -1026.7781    258.50814    95.075571    14.577008    28.013433 
   30000    232.68423   -310.70403    204420.41   -23329.009    1688.8855   -25017.895   -542.52933     260.0008    95.074924    14.577189    28.021995 
   30200    237.52801   -373.02735    204420.41    -23269.84     1724.043   -24993.883   -760.81757    261.75621    95.074898    14.577227    28.027248 
   30400    242.39776   -222.09775    204420.41   -23221.653     1759.389   -24981.041   -225.01065    261.57973    95.075168    14.576532    28.007434 
   30600    234.82636   -305.29538    204420.41   -23251.923    1704.4337   -24956.357   -537.25418     264.2923    95.075646    14.576739    28.019657 
   30800    241.64011    -118.3417    204420.41   -23208.059    1753.8897   -24961.949    78.770611    267.38316    95.077101    14.574888    28.017796 
   31000    245.53493   -446.78975    204420.41   -23195.097    1782.1594   -24977.256   -1020.6555    270.13665    95.077239    14.575102    28.022358 
   31200    242.90217   -390.29674    204420.41   -23196.132    1763.0502   -24959.182   -841.64686    273.59714    95.076576    14.573468    28.006035 
   31400    245.21447   -247.68801    204420.41   -23207.212    1779.8334   -24987.045   -359.40318    276.90339    95.076721     14.56956    27.992282 
   31600    242.97462   -422.01305    204420.41   -23253.426     1763.576   -25017.002   -914.72924    280.24228    95.076466    14.569096    27.993606 
   31800    241.37135   -398.57182    204420.41   -23152.385     1751.939   -24904.324   -854.91132    282.91274    95.075727    14.569943    28.003435 
   32000    235.26893   -455.68124    204420.41   -23192.605     1707.646   -24900.251   -1054.3978     284.4358     95.07345    14.567382    27.995149 
   32200    246.89241    -323.7864    204420.41   -23235.113    1792.0124   -25027.125   -618.50877    285.95923    95.073796    14.566759    28.014251 
   32400    235.58931    -391.3101    204420.41   -23255.586    1709.9714   -24965.558   -844.69625    288.94204     95.07392    14.568152    28.008007 
   32600      247.016   -582.61164    204420.41   -23169.012    1792.9094   -24961.922   -1550.7246    293.15656    95.074542    14.571005    27.980732 
   32800    245.65068   -322.18058    204420.41   -23155.576    1782.9996   -24938.575   -596.58458    296.75139    95.073992     14.57367    27.980896 
   33000     244.5149   -433.27571    204420.41   -23158.453    1774.7558   -24933.209   -975.26473    300.68916     95.07513    14.576668    27.992452 
   33200    242.03184   -283.63861    204420.41   -23236.512    1756.7331   -24993.245   -479.75549    303.58354    95.075921    14.579377    27.998267 
   33400    237.13456   -300.80867    204420.41   -23275.302    1721.1873    -24996.49    -526.9647    305.77991    95.074686    14.579856    27.997696 
   33600    236.03648   -360.93857    204420.41   -23265.567    1713.2171   -24978.784   -707.40726    307.38598    95.074874    14.581118    27.997893 
   33800    242.02618   -278.71865    204420.41   -23068.507     1756.692   -24825.199   -444.94809    309.17776    95.075856    14.576807    27.986237 
   34000    240.50027   -407.76404    204420.41   -23204.822    1745.6165   -24950.438   -883.43874    310.65687    95.076065    14.577459    28.001911 
   34200    240.74211   -215.74262    204420.41   -23243.201    1747.3719   -24990.572   -243.36664    312.11727    95.076523    14.578175    28.007584 
   34400    241.82842   -499.82483    204420.41   -23277.621    1755.2565   -25032.877   -1191.1674    315.07221    95.075118    14.580564    27.997243 
   34600    240.84339   -315.30832    204420.41   -23167.712    1748.1069   -24915.819   -540.48785    315.64121    95.074553    14.581124    27.997265 
   34800    237.57542   -245.39888    204420.41   -23275.873    1724.3871    -25000.26    -354.4219    317.86567    95.074949    14.579788    28.004615 
   35000    242.67414   -354.01591    204420.41   -23336.589     1761.395   -25097.984   -685.21565    318.62396    95.077693    14.580226    27.999661 
   35200    243.92742   -190.48419    204420.41   -23237.292    1770.4917   -25007.784   -134.14157    318.37544    95.079988    14.579301    28.008966 
   35400    239.48163   -276.91866    204420.41   -23269.789    1738.2229   -25008.012   -430.20985    316.24879    95.082104    14.581716    28.041263 
   35600    239.02471   -329.48507    204420.41   -23285.981    1734.9065   -25020.888   -608.36166    313.44672    95.084334    14.582373    28.030339 
   35800    249.57524   -406.59613    204420.41   -23195.447    1811.4851   -25006.932   -897.21748    312.38908    95.082258    14.581345     28.04266 
   36000    239.72182   -369.10394    204420.41    -23299.76    1739.9663   -25039.726   -814.07341    309.40251    95.082915    14.582844    28.027161 
   36200    238.93214   -332.07848    204420.41   -23303.852    1734.2346   -25038.087   -607.68438    309.46538    95.081524     14.58178    28.062119 
   36400    236.17947   -329.62888    204420.41   -23235.309     1714.255   -24949.564   -589.00825    307.18116    95.081242    14.584165    28.056951 
   36600    237.61564   -235.96819    204420.41   -23211.268    1724.6791   -24935.947   -316.23195    308.56768    95.080095    14.586113     28.06571 
   36800    234.43363   -512.00392    204420.41   -23291.683    1701.5831   -24993.266   -1232.2525    310.39393    95.079159     14.58958    28.078354 
   37000    239.57182   -333.58232    204420.41   -23265.897    1738.8775   -25004.774   -666.74121    313.26212     95.07881    14.589328    28.066582 
   37200    239.31726   -367.18324    204420.41   -23254.082    1737.0299   -24991.112   -704.74037      314.027     95.07922    14.589321    28.066764 
   37400    240.78729   -333.91294    204420.41   -23250.073    1747.6998   -24997.772   -625.69037    315.39211    95.079866    14.588061    28.081119 
   37600    237.93274   -181.33554    204420.41   -23296.684    1726.9806   -25023.664   -66.929653    316.35204     95.08087    14.588196    28.117722 
   37800    230.89986   -286.05471    204420.41   -23336.902    1675.9341   -25012.836   -476.52772    317.93727     95.08169    14.589606     28.13353 
   38000    240.08678   -510.03404    204420.41   -23235.805    1742.6153    -24978.42   -1243.6523    318.02018    95.081984    14.589116    28.121901 
   38200    243.51765   -463.49918    204420.41   -23235.962    1767.5174   -25003.479   -1091.6096    320.70038    95.082836    14.587774    28.129882 
   38400    244.50911   -211.93942    204420.41   -23212.521    1774.7137   -24987.235   -250.27655     322.4194     95.08329    14.586528    28.117667 
   38600    236.66484   -221.90635    204420.41   -23274.118    1717.7779   -24991.896   -258.26281    324.62151    95.082939    14.589112    28.126319 
   38800    239.85834   -348.20688    204420.41   -23233.629    1740.9572   -24974.586    -689.0815    327.86692    95.082682    14.588995    28.118968 
   39000    243.35115   -400.10248    204420.41   -23195.834    1766.3089   -24962.143    -855.7768    328.48952    95.081555    14.591277    28.127264 
   39200    233.23093   -268.33986    204420.41   -23279.596    1692.8536    -24972.45   -419.51998    327.17396    95.081366    14.589558    28.118566 
   39400    239.22538   -339.28124    204420.41   -23241.599     1736.363   -24977.962   -686.93684    324.70759    95.083327    14.588327    28.111216 
   39600    243.01118   -382.33439    204420.41   -23174.607    1763.8414   -24938.448   -813.98222    324.63228    95.081768    14.589254    28.111037 
   39800    234.60113   -263.33616    204420.41   -23224.541    1702.7989    -24927.34   -419.93033    324.02601     95.08252    14.591366    28.099769 
   40000    238.11338   -136.05233    204420.41   -23204.358    1728.2918   -24932.649    70.390023    322.70529    95.083261    14.592201    28.091551 
   40200    237.84733   -373.38474    204420.41   -23187.655    1726.3607   -24914.016   -800.45578    323.61427    95.082518    14.592319     28.10881 
   40400    237.21074   -382.47375    204420.41    -23259.56    1721.7402     -24981.3   -809.25656    326.12095    95.081942    14.592839    28.139877 
   40600    235.79639   -201.14916    204420.41   -23133.141    1711.4744   -24844.616   -168.97155    327.94012    95.082593    14.593814    28.131295 
   40800    241.69326   -336.53481    204420.41   -23234.959    1754.2756   -24989.234   -646.16897    329.91539    95.084199    14.596774    28.119176 
   41000    239.14333   -463.97513    204420.41   -23201.101    1735.7675   -24936.869   -1072.4669    331.51447    95.085279    14.597591    28.109355 
   41200    243.12534   -498.75806    204420.41   -23146.253    1764.6699   -24910.923   -1213.5182    332.44979    95.085694    14.599287    28.107054 
   41400    237.26246   -410.58776    204420.41   -23161.959    1722.1156   -24884.075   -931.33597    334.35303    95.087294    14.598229    28.096937 
   41600    238.78384   -272.39432    204420.41   -23168.467    1733.1582   -24901.625   -401.19317    337.60171    95.087799    14.596337     28.08204 
   41800    244.12035   -293.15282    204420.41   -23187.105     1771.892   -24958.997   -511.65889    340.07949     95.08728    14.594992    28.057382 
   42000    236.63876   -470.65203    204420.41   -23254.965    1717.5886   -24972.554   -1110.7907    341.05588    95.086552     14.59558    28.077193 
   42200    235.73932   -248.65578    204420.41   -23298.054    1711.0602   -25009.115   -365.75815    343.05957    95.085476    14.594095    28.050837 
   42400    235.78074   -437.26038    204420.41   -23258.512    1711.3609   -24969.872   -1018.7382    346.97037    95.084517     14.59173     28.03937 
   42600    242.00961    -494.7235    204420.41   -23269.747    1756.5717   -25026.318   -1190.9666    347.57482    95.083654    14.590478    28.054312 
   42800    240.32142   -349.18307    204420.41   -23223.072    1744.3184    -24967.39   -722.89998     347.3421    95.083402    14.590426    28.080688 
   43000    235.33825   -369.96893    204420.41   -23230.878    1708.1492   -24939.028   -752.54886    350.69574    95.083103    14.591042    28.080276 
   43200    237.19686   -140.38726    204420.41   -23227.425    1721.6394   -24949.065    19.815215    351.79817    95.083358    14.587643    28.094202 
   43400    242.06194   -254.82119    204420.41   -23194.322    1756.9515   -24951.273   -339.70082    355.10825     95.08286    14.590172    28.083106 
   43600    236.61949   -377.40379    204420.41   -23213.092    1717.4487   -24930.541   -786.16304    356.89478    95.082041    14.590455    28.069931 
   43800    239.58673   -283.89071    204420.41   -23238.472    1738.9857   -24977.458   -467.49773    356.81708    95.083582    14.590429    28.050861 
   44000    237.53795   -261.49476    204420.41   -23291.875    1724.1152    -25015.99   -399.60938    359.81833    95.084702    14.595259    28.048102 
   44200    236.35052   -487.81937    204420.41   -23229.289    1715.4964   -24944.786   -1147.5164    363.05721     95.08412    14.595158    28.053864 
   44400    234.49259   -372.34332    204420.41   -23250.377    1702.0111   -24952.388   -793.66954    365.94661    95.083007     14.59646    28.066292 
   44600    234.76445   -380.38833    204420.41   -23270.245    1703.9844    -24974.23    -839.0583    369.11164    95.081583    14.595844    28.047864 
   44800    239.67152   -441.27026    204420.41   -23275.428    1739.6012   -25015.029   -1043.9293    370.78789    95.080961    14.598587    28.045856 
   45000    239.97021   -394.59342    204420.41   -23219.007    1741.7692   -24960.776     -850.218    371.52899     95.08096    14.598198    28.052217 
   45200    234.65898    -296.6279    204420.41    -23194.72    1703.2188   -24897.939   -537.54841    371.69054    95.079921    14.600057    28.027299 
   45400    236.63744   -244.19121    204420.41   -23259.016     1717.579   -24976.595   -355.11234    373.74293    95.080857    14.600637    28.018111 
   45600    239.36424   -387.71099    204420.41   -23202.058    1737.3709   -24939.429   -846.04397     377.1534    95.081743    14.598266    28.005085 
   45800    241.15702   -447.10493    204420.41   -23240.759    1750.3834   -24991.143   -1076.3524     380.3004    95.080652    14.596133    28.016014 
   46000    240.29749   -312.08919    204420.41   -23175.354    1744.1447   -24919.499   -553.90798    382.02373    95.079882     14.59589    28.019068 
   46200    246.55908   -440.11024    204420.41   -23173.615     1789.593   -24963.208   -990.31565    385.65234    95.078434    14.596534    28.023923 
   46400     235.9999   -265.62578    204420.41   -23258.605    1712.9516   -24971.556   -442.15206    388.55123      95.0783    14.596766    28.037476 
   46600    241.02466   -329.82989    204420.41   -23241.651    1749.4226   -24991.074    -628.8334    390.10683    95.077101    14.596444    28.039026 
   46800    239.33606   -371.17555    204420.41   -23218.344    1737.1663    -24955.51   -807.21584    392.07811    95.076597    14.594366    28.033939 
   47000    245.58619   -202.94144    204420.41   -23248.433    1782.5315   -25030.965   -146.04884    393.35547    95.078293    14.595818    28.017189 
   47200    232.13913   -521.28975    204420.41   -23331.478    1684.9291   -25016.407   -1266.7418    394.36551    95.079579     14.59266     28.00992 
   47400     237.7845   -344.73486    204420.41   -23244.151    1725.9047   -24970.055   -687.21035    392.39017    95.080495    14.592912    27.985031 
   47600    241.48411   -417.96867    204420.41   -23232.511    1752.7575   -24985.268   -961.65583    391.51084    95.079888    14.594835    27.996746 
   47800    240.62544    -210.4979    204420.41   -23282.653     1746.525   -25029.178   -184.60955    388.66465    95.079276    14.597053    27.981455 
   48000    240.19038   -321.63461    204420.41   -23313.503    1743.3672   -25056.871   -608.46265    389.61287     95.07798    14.597747    27.983906 
   48200    233.73243   -482.21143    204420.41   -23284.483    1696.4936   -24980.977   -1151.1532    388.57927    95.077161    14.597831    27.997683 
   48400    241.35512   -505.09775    204420.41   -23260.224    1751.8213   -25012.045   -1241.8156    387.34529    95.076853    14.597675    27.996375 
   48600    237.01304   -215.20809    204420.41    -23352.89    1720.3052   -25073.196   -266.67052    388.85342    95.076501    14.599013     28.03453 
   48800    237.84275   -434.94375    204420.41   -23313.254    1726.3275   -25039.582   -988.89403    390.35569    95.077375     14.59931      28.0344 
   49000    238.11345   -204.68459    204420.41   -23314.905    1728.2923   -25043.197   -171.54694    391.25903    95.078315     14.59568    28.018143 
   49200    239.77272   -269.78824    204420.41     -23273.2    1740.3357   -25013.536   -413.92481    390.25259    95.078135    14.594133    28.018468 
   49400    236.33839   -319.62366    204420.41   -23380.256    1715.4084   -25095.665   -582.99651    390.51782    95.078795    14.593996    28.007753 
   49600    238.67151    -445.1501    204420.41    -23339.49    1732.3429   -25071.833   -1036.3248    391.73811     95.07854    14.593982    28.023662 
   49800    242.01794   -330.08353    204420.41   -23311.352    1756.6321   -25067.984   -617.25491    392.92126    95.077507    14.598148    28.034018 
   50000    239.02059   -285.33354    204420.41   -23316.075    1734.8766   -25050.951   -489.83951    393.41215    95.079211    14.601839    28.038775 
   50200    243.46099   -312.62505    204420.41   -23193.449    1767.1062   -24960.555    -520.4298    393.52843     95.07574    14.601229    28.035905 
   50400    242.96367   -240.18593    204420.41    -23235.79    1763.4965   -24999.287   -299.75814    393.41174    95.073493    14.603361    28.035157 
   50600    242.90296   -453.28341    204420.41   -23095.598    1763.0559   -24858.654   -1101.5195    396.06567     95.07352     14.60506    28.032159 
   50800    231.08686    -267.6378    204420.41   -23296.866    1677.2914   -24974.158   -368.67506    394.84316    95.072837    14.605406    28.033957 
   51000    235.84357   -342.09251    204420.41   -23304.209    1711.8169   -25016.026    -700.4088    395.01038    95.071775    14.609942    28.040211 
   51200    237.87531   -346.27767    204420.41   -23275.938    1726.5638   -25002.501   -713.41677    394.00095    95.072213    14.612216    28.033719 
   51400    236.37853   -299.35478    204420.41   -23275.077    1715.6998   -24990.776     -508.505    394.62685    95.073537    14.613236    28.036149 
   51600    237.85217   -343.91025    204420.41   -23290.947    1726.3958   -25017.342   -680.35293    397.04265    95.073465    14.616011    28.038029 
   51800    236.62961   -182.98392    204420.41    -23246.07    1717.5222   -24963.593   -117.29532    399.72384    95.071504    14.621167    28.034146 
   52000     234.2667   -199.92726    204420.41   -23303.808    1700.3716    -25004.18   -125.35481    403.37097    95.072045    14.622056    28.027153 
   52200    237.15705   -262.72793    204420.41   -23299.561    1721.3505   -25020.912    -391.9402    408.04064    95.069789    14.623185    28.039191 
   52400     232.9433   -270.54103    204420.41   -23380.884    1690.7659    -25071.65   -410.06153    410.61439    95.067976     14.62094    28.017633 
   52600    240.05531   -347.52506    204420.41   -23230.896    1742.3868   -24973.282   -669.06943    413.63611    95.067808    14.618754    28.021687 
   52800    244.04219    -403.1522    204420.41   -23165.485    1771.3247    -24936.81   -899.36263    415.09724    95.070243     14.61803    28.031077 
   53000    245.92611   -254.47398    204420.41   -23143.922    1784.9987   -24928.921   -364.48296    414.36686    95.069426    14.618812    28.025214 
   53200    238.24444   -502.88883    204420.41   -23217.265    1729.2431   -24946.509   -1207.8276    415.74147    95.067734      14.6221    28.020202 
   53400    241.69686   -256.29094    204420.41   -23214.785    1754.3016   -24969.087   -382.63969     416.9749    95.066964    14.622897    28.029653 
   53600    240.41608   -115.90683    204420.41    -23290.17    1745.0054   -25035.176    100.12438    417.80074    95.065826     14.62504    28.016463 
   53800    238.22596   -618.83277    204420.41    -23243.52    1729.1089   -24972.629   -1644.8684     420.7644    95.065988    14.622788    28.019176 
   54000    244.83038   -424.55466    204420.41   -23189.279    1777.0456   -24966.324   -934.70978    422.77995    95.065832    14.624176    27.998618 
   54200    237.40509   -305.05336    204420.41   -23193.978    1723.1508   -24917.129   -541.39164    423.38871    95.065751    14.624238     27.98804 
   54400    244.70389   -187.27242    204420.41   -23146.709    1776.1275   -24922.837   -142.12828     423.9434    95.066419    14.623997    28.007351 
   54600    241.28146   -293.61603    204420.41   -23178.796    1751.2866   -24930.083   -468.76933    423.86729    95.066299    14.621822    28.008418 
   54800    240.67411   -263.32903    204420.41   -23151.272    1746.8783    -24898.15   -368.88344    425.97412    95.065206    14.618921    28.020706 
   55000    245.43857   -290.33055    204420.41   -23110.542      1781.46   -24892.002   -482.63981    426.38872    95.064574    14.616588    28.020592 
   55200    235.16187   -329.82315    204420.41   -23281.743    1706.8689   -24988.612     -634.608    428.07512    95.063509    14.615687    28.008446 
   55400    235.16454   -199.36435    204420.41   -23268.815    1706.8883   -24975.703   -159.09521     432.4698     95.06193    14.618425    28.002039 
   55600    240.85685    -334.3429    204420.41   -23271.962    1748.2046   -25020.166    -610.6509    435.43935    95.061331    14.618101    28.019449 
   55800    249.38821   -233.61432    204420.41   -23159.602    1810.1276    -24969.73   -298.75712    436.26539    95.060199    14.620556    28.015894 
   56000    244.86506   -190.59181    204420.41   -23235.888    1777.2973   -25013.185   -127.40233    436.61628    95.061841    14.623799    28.019783 
   56200    243.94176   -213.25407    204420.41   -23221.142    1770.5958   -24991.738   -235.27362    437.81761     95.06189    14.625646    28.019184 
   56400    236.70268   -179.45525    204420.41   -23335.397    1718.0525    -25053.45   -132.31132    437.15158    95.061156    14.624236    28.034419 
   56600    230.58709   -192.78804    204420.41    -23410.64    1673.6639   -25084.304   -112.35954    437.23942    95.060902    14.622822    28.044115 
   56800    241.41737   -250.11552    204420.41    -23296.94     1752.273   -25049.213   -352.95745    437.95503    95.061601    14.621696    28.041008 
   57000    237.69263   -346.15089    204420.41   -23350.787    1725.2379   -25076.025   -674.21194    437.49558    95.063758    14.620695     28.04966 
   57200    241.51886   -348.72454    204420.41   -23244.285    1753.0097   -24997.294   -713.28408    437.64906    95.064403    14.620651     28.07071 
   57400    242.80711   -508.58853    204420.41   -23280.712    1762.3602   -25043.072   -1238.3611    442.41989    95.062451    14.624428    28.074803 
   57600    229.41625    -595.6857    204420.41   -23285.544    1665.1657    -24950.71   -1554.7058    445.76273    95.063115    14.627123    28.055162 
   57800    246.25481   -317.62697    204420.41   -23229.977    1787.3845   -25017.362   -572.19804    445.67947    95.065473    14.627772    28.055675 
   58000    239.03174   -391.25643    204420.41   -23258.675    1734.9575   -24993.632   -844.19351    444.59782    95.065376    14.629691    28.051311 
   58200    240.50498   -316.01247    204420.41   -23229.189    1745.6507   -24974.839   -539.83913    443.09244    95.065557    14.627416    28.046286 
   58400    240.30758   -313.55148    204420.41   -23246.417    1744.2179   -24990.635   -588.42469    439.83139    95.067896    14.627954    28.043408 
   58600    234.12862   -468.93039    204420.41   -23271.537    1699.3693   -24970.906   -1135.1309    438.95338    95.069377    14.631398    28.041087 
   58800    239.89376    -604.2735    204420.41   -23228.158    1741.2143   -24969.373   -1576.6655    439.09924    95.069855    14.632858    28.030271 
   59000    242.48355   -277.32093    204420.41   -23155.124    1760.0117   -24915.136     -438.853    439.80259    95.069177    14.634027    28.013273 
   59200    238.01079   -216.77031    204420.41   -23268.785    1727.5472   -24996.332   -198.63963    441.33685    95.068558    14.633763    27.999117 
   59400    243.55682   -350.60834    204420.41   -23263.007    1767.8017   -25030.809   -672.89369    443.40172    95.068319    14.634994    28.001753 
   59600    233.60373   -464.57659    204420.41   -23295.511    1695.5595   -24991.071    -1107.877    443.62806    95.070236    14.634972    28.004315 
   59800    237.91997   -313.93244    204420.41   -23277.374     1726.888   -25004.262   -585.52015    443.79064       95.071    14.639661    28.002846 
   60000    243.94961   -620.59103    204420.41    -23242.07    1770.6527   -25012.723   -1631.9796    447.05258    95.071465    14.643068    28.002522 
   60200    234.82678   -224.30258    204420.41   -23278.168    1704.4368   -24982.605   -239.44648    449.10521    95.071933    14.643242    27.980743 
   60400    241.75359   -243.62146    204420.41   -23217.712    1754.7134   -24972.426    -345.8767    449.47322    95.073828    14.646891    27.978718 
   60600    235.40332   -168.04582    204420.41   -23220.063    1708.6215   -24928.684   -51.885984    451.10797    95.074697    14.645825    27.978023 
   60800    239.08639    -237.2974    204420.41   -23135.451    1735.3542   -24870.805   -287.83567    452.52685      95.0758    14.646454     27.96602 
   61000    243.03441   -331.01389    204420.41   -23191.638      1764.01   -24955.648   -624.96575    456.75002    95.073196    14.643991    27.980674 
   61200    243.91083    -482.2656    204420.41   -23159.183    1770.3713   -24929.554   -1173.4029    461.30912     95.07246     14.64451    27.987346 
   61400    243.77545   -372.00488    204420.41    -23166.56    1769.3886   -24935.948   -731.57141    465.90825     95.07217    14.643842    27.982122 
   61600    237.15246   -298.32096    204420.41    -23218.75    1721.3172   -24940.067   -548.15714    466.75217    95.072258    14.644936    27.998387 
   61800    237.50325    -421.4944    204420.41   -23287.802    1723.8633   -25011.666   -948.33613    468.19157    95.072747    14.646112    28.012561 
   62000     239.0008   -259.77657    204420.41   -23184.618    1734.7329    -24919.35   -413.11874    468.47706    95.073925    14.648444    28.047371 
   62200    240.68717   -403.21364    204420.41   -23174.661     1746.973   -24921.634   -874.84896    470.46601    95.073916    14.650751    28.071954 
   62400    233.81147   -321.33365    204420.41   -23210.533    1697.0674     -24907.6   -599.99334    470.93897    95.073946    14.652436    28.056719 
   62600    240.50104   -191.82206    204420.41   -23238.701    1745.6221   -24984.323    -110.2605    472.72006      95.0741    14.652823    28.092324 
   62800    235.96484   -331.87592    204420.41   -23298.602    1712.6971   -25011.299   -647.88147    471.79536    95.073566    14.654871    28.087566 
   63000     244.8298   -277.46211    204420.41   -23201.806    1777.0414   -24978.847   -439.31685    471.12973    95.074833    14.658718    28.078229 
   63200    241.05739   -318.95097    204420.41   -23227.507    1749.6602   -24977.167   -589.95816    471.03453    95.075522    14.663765    28.077045 
   63400    233.57421   -330.12191    204420.41   -23290.678    1695.3452   -24986.023   -631.86515    470.48325    95.075112    14.664458     28.05706 
   63600    239.53379   -650.81127    204420.41   -23299.399    1738.6015   -25038.001   -1764.4492    471.90408    95.075042    14.664715    28.079265 
   63800    232.96325   -238.83052    204420.41   -23310.958    1690.9107   -25001.869   -295.41708    471.05221    95.075026    14.663101    28.078384 
   64000    241.96771   -390.35472    204420.41   -23202.042    1756.2676    -24958.31   -822.80959    474.67679    95.073313    14.660873    28.071665 
   64200    238.07527   -438.35308    204420.41   -23235.796    1728.0152   -24963.811   -990.40772    474.47418    95.072904    14.661415    28.084626 
   64400    236.76867   -315.96641    204420.41   -23267.147    1718.5315   -24985.678   -562.34754    474.47207    95.073501    14.662176    28.098044 
   64600    238.87511   -289.92836    204420.41    -23256.69    1733.8207   -24990.511   -482.37442    476.46637    95.074013     14.66049    28.112447 
   64800    239.19213    -359.9582    204420.41   -23269.613    1736.1216   -25005.734   -737.09875    479.15635    95.074275    14.658601    28.094343 
   65000    238.93084   -390.32088    204420.41   -23162.217    1734.2251   -24896.442    -853.8774     479.6379    95.073774    14.659278    28.092287 
   65200    243.92407   -321.04942    204420.41   -23207.524    1770.4674   -24977.991   -573.20815    477.78009    95.074927    14.663772    28.077195 
   65400    234.60293     -528.925    204420.41   -23247.357     1702.812   -24950.169   -1325.1556    477.71332    95.076645    14.667122    28.071327 
   65600    236.29979   -229.89027    204420.41   -23186.388    1715.1283   -24901.516   -233.65389     479.9093    95.074793    14.666427    28.062905 
   65800    235.79424   -285.16946    204420.41   -23233.991    1711.4588   -24945.449   -462.65028    480.06189    95.075469    14.665847    28.067575 
   66000    242.66933   -194.06347    204420.41   -23257.045    1761.3601   -25018.405   -151.33123    479.98432    95.076112    14.666666    28.064063 
   66200    236.76202   -311.51115    204420.41   -23320.926    1718.4833   -25039.409   -573.99817     481.8051    95.076492    14.668436    28.073959 
   66400    238.65402   -413.25875    204420.41   -23300.778    1732.2159   -25032.994   -922.72259    482.28171    95.076138    14.667778    28.058731 
   66600    237.09385   -121.09013    204420.41   -23309.766    1720.8918   -25030.658    94.634217    483.18508    95.077692    14.666906    28.053978 
   66800    236.98169   -555.92022    204420.41   -23274.143    1720.0777   -24994.221   -1407.4207     485.2602    95.075656    14.666766    28.034412 
   67000    239.25936   -256.69015    204420.41   -23356.804    1736.6096   -25093.414   -395.40757    486.92352    95.075851    14.669086    28.016017 
   67200    233.66371   -442.65433    204420.41   -23283.857    1695.9949   -24979.852   -1037.8681    492.22015      95.0757    14.669431    28.024573 
   67400    238.80057   -271.32416    204420.41   -23231.714    1733.2796   -24964.994   -396.37158    497.76307    95.076437    14.668174    28.029238 
   67600    238.01655   -329.16447    204420.41   -23158.741    1727.5889    -24886.33   -560.12934    501.28374     95.07731    14.668391    28.038154 
   67800    241.10393   -278.17473    204420.41   -23203.037     1749.998   -24953.035   -458.66019    501.24233    95.077796    14.666618    28.052824 
   68000    232.61609   -552.43837    204420.41   -23269.936     1688.391   -24958.327   -1442.1242    501.10509    95.077903    14.663029    28.048646 
   68200    237.38307   -148.02363    204420.41   -23246.667     1722.991   -24969.658    35.058141    501.50606    95.077245    14.664276    28.038856 
   68400    244.33776   -457.06475    204420.41   -23185.819      1773.47   -24959.289   -1053.3228    504.11223    95.076837    14.663587     28.04668 
   68600    235.00843   -348.32103    204420.41   -23252.619    1705.7552   -24958.374   -685.10305    504.89847    95.076058    14.664669    28.050659 
   68800    244.22716   -439.64064    204420.41   -23210.553    1772.6673    -24983.22   -995.87335    507.52643    95.074183    14.662088    28.054011 
   69000    244.47315   -231.44764    204420.41   -23210.278    1774.4527   -24984.731   -295.58623    507.84197    95.074063    14.659986     28.05309 
   69200    236.91338   -413.03441    204420.41   -23280.574    1719.5819   -25000.156   -911.72433    508.65254    95.072951    14.656515    28.042231 
   69400    239.01342    -239.6909    204420.41   -23280.499    1734.8245   -25015.324   -316.72566    508.43404    95.073524     14.65499    28.028809 
   69600    242.49851   -416.20243    204420.41    -23148.87    1760.1203    -24908.99   -934.37803    504.66163    95.072596    14.653967    28.020566 
   69800    236.20009   -539.01833    204420.41   -23187.957    1714.4046   -24902.362    -1377.076    506.92079    95.071232    14.653401    28.032652 
   70000    235.43348   -278.78518    204420.41   -23258.183    1708.8403   -24967.024   -461.49282    508.45721    95.072458     14.65373    28.018374 
   70200    245.66547   -286.21924    204420.41   -23146.361    1783.1069   -24929.468   -468.85616    509.77247    95.073271    14.655658    27.989084 
   70400    240.78745   -227.49369    204420.41   -23153.629    1747.7009    -24901.33   -248.20029    512.06404    95.075372    14.655103    28.007315 
   70600    241.13778   -273.92988    204420.41   -23197.318    1750.2437   -24947.562   -442.82445    513.09822    95.074635    14.657209    27.996302 
   70800    234.03506   -349.88612    204420.41   -23171.342    1698.6903   -24870.032    -677.8668    513.91871    95.073813    14.656604    27.979325 
   71000    237.84281   -321.46154    204420.41   -23203.967    1726.3279   -24930.295   -587.63681    514.71354    95.072329    14.654425    27.977679 
   71200    237.63559   -557.63507    204420.41   -23216.523    1724.8239   -24941.347   -1417.7679     514.7556    95.072233    14.653968    27.964357 
   71400    231.65995   -433.28625    204420.41   -23277.528    1681.4511   -24958.979   -1003.2705     516.0644    95.073272    14.654191    27.977968 
   71600    245.18484   -362.33405    204420.41   -23180.801    1779.6184    -24960.42   -717.44622    517.44491    95.070792    14.655625    27.978266 
   71800    234.14348   -149.09888    204420.41   -23272.706    1699.4772   -24972.183    27.435417    518.58507    95.069893    14.659014     27.97529 
   72000    236.03233   -376.70403    204420.41   -23285.112     1713.187   -24998.299   -783.56191    519.98746     95.07096    14.662308    27.974785 
   72200    244.75241   -293.19774    204420.41   -23142.945    1776.4797   -24919.425    -480.5056    517.41564    95.071209    14.664216    27.974252 
   72400    236.61684   -484.71395    204420.41   -23209.289    1717.4295   -24926.719   -1186.2401     517.8483    95.070996    14.664409    27.979346 
   72600    249.38261   -273.20052    204420.41   -23202.448    1810.0869   -25012.535   -409.54711    515.36086    95.070881    14.663937    27.976201 
   72800    242.30213    -406.8579    204420.41   -23223.085    1758.6949    -24981.78   -857.62365    517.44991    95.072499    14.665645    28.003802 
   73000    236.59335   -346.59192    204420.41   -23240.966     1717.259   -24958.225   -650.41553    518.60111    95.073945    14.667613    28.019103 
   73200    240.13976   -199.26627    204420.41   -23235.622    1742.9998   -24978.622   -203.42955    518.22152    95.076048     14.66953    28.044899 
   73400    246.15087   -410.68998    204420.41   -23194.285    1786.6301   -24980.915   -914.09177    519.35945    95.075018    14.668559    28.043669 
   73600    240.98782   -321.08309    204420.41   -23210.923    1749.1553   -24960.078   -597.03142    521.26381    95.075864    14.669117    28.052603 
   73800     235.3398   -221.50458    204420.41   -23279.532    1708.1604   -24987.693   -270.54796    523.33802    95.077627    14.669923    28.041666 
   74000    236.05301   -391.04171    204420.41   -23287.931     1713.337   -25001.268   -806.51005    526.92455    95.078105    14.670177    28.036388 
   74200    241.76813   -463.74921    204420.41   -23148.276     1754.819   -24903.095   -1083.2266    527.70258     95.07868    14.668967    28.036343 
   74400     240.4884   -361.03252    204420.41   -23155.797    1745.5303   -24901.328   -770.53939    528.88156    95.078379    14.668101    28.055837 
   74600    242.64434   -133.45844    204420.41   -23171.662    1761.1787   -24932.841    46.516702     528.6564    95.079404    14.667879    28.069469 
   74800    242.13586   -305.10966    204420.41   -23190.974     1757.488   -24948.462   -550.24098    532.26924    95.077821    14.666778    28.079908 
   75000    239.01361   -352.00991    204420.41   -23210.708    1734.8259   -24945.534   -714.26356    534.19535    95.079767    14.666114     28.10217 
   75200    245.15892   -311.81222    204420.41    -23179.98    1779.4303   -24959.411   -563.42348    535.53231    95.079562    14.665317    28.095722 
   75400    236.76185   -250.72272    204420.41   -23261.447     1718.482   -24979.929   -325.84975    537.31363    95.080587     14.66678    28.082597 
   75600    239.17148   -368.60733    204420.41   -23220.058    1735.9718   -24956.029   -753.77324    538.72956    95.078746    14.667925    28.085246 
   75800    242.29888   -334.83949    204420.41   -23183.536    1758.6713   -24942.207   -600.35114    539.21729    95.075798    14.669537    28.069703 
   76000    242.80531   -287.80639    204420.41   -23174.963    1762.3471    -24937.31   -457.10607    539.63977    95.074829    14.667905    28.057843 
   76200    234.12679    -331.0603    204420.41   -23294.095     1699.356   -24993.451   -639.59634    539.01585    95.074992    14.667881     28.06861 
   76400    236.97544   -344.23083    204420.41   -23259.097    1720.0323   -24979.129   -666.26745    541.69571     95.07378    14.667247    28.086767 
   76600    241.98048   -454.23695    204420.41   -23212.593    1756.3603   -24968.953    -1090.166     544.1388    95.072922    14.669084     28.08271 
   76800    239.78014   -389.36193    204420.41    -23232.51    1740.3896     -24972.9   -771.78374    544.69473     95.07243    14.669702    28.083113 
   77000    245.22891   -297.20146    204420.41   -23234.846    1779.9383   -25014.785   -492.19645    544.83314    95.071451    14.668278    28.115841 
   77200    243.08971   -341.58791    204420.41   -23188.562    1764.4113   -24952.974   -676.45501    547.45214    95.068849    14.664175    28.113265 
   77400    238.94734   -373.40118    204420.41    -23173.57    1734.3449   -24907.915   -790.69332    547.83768    95.067314    14.663234    28.101352 
   77600    239.65981    -499.8316    204420.41     -23207.3    1739.5162   -24946.816   -1222.7548    550.10378    95.067334    14.660773    28.091741 
   77800    241.93798    -259.8518    204420.41   -23213.185    1756.0518   -24969.237   -398.59577    552.25933    95.068365    14.661135    28.074557 
   78000    240.93269   -216.27927    204420.41   -23238.214    1748.7551   -24986.969   -192.10962     552.5037    95.068326    14.658286    28.044014 
   78200     239.4737   -533.45918    204420.41     -23286.5    1738.1654   -25024.666   -1305.7663    554.50298    95.068603    14.657199    28.037685 
   78400    242.44916   -389.47772    204420.41   -23231.075    1759.7621   -24990.837   -837.63071     555.4575    95.069526      14.6557    28.038186 
   78600    238.26667   -481.11355    204420.41   -23265.722    1729.4044   -24995.127   -1147.6065    555.92761    95.068319    14.655346    28.029653 
   78800    238.82693   -390.54738    204420.41   -23226.174    1733.4709   -24959.645   -827.07935    558.18237    95.068641    14.654355    28.019712 
   79000    240.44663    -266.1228    204420.41   -23240.599    1745.2271   -24985.826   -392.60278    559.01517    95.069135    14.652956    28.026429 
   79200    242.80056   -149.42164    204420.41   -23224.392    1762.3126   -24986.705    21.039054    562.38568    95.069216    14.652332    28.023621 
   79400    238.72721   -395.80617    204420.41   -23192.822    1732.7471   -24925.569   -875.27221    563.40333    95.070776    14.651967    28.020012 
   79600    241.18485   -277.48896    204420.41   -23325.882    1750.5854   -25076.468   -443.57054    564.06329    95.071962    14.654016    28.028867 
   79800    239.12709   -418.42764    204420.41   -23305.831    1735.6495   -25041.481   -901.61317    564.12185    95.071243    14.656499    28.008354 
   80000    239.46516   -359.44206    204420.41   -23339.519    1738.1034   -25077.622   -758.85443    565.12457    95.072586    14.658227    27.979327 
   80200    239.13084   -385.19411    204420.41   -23349.386    1735.6768   -25085.063   -811.21091    566.21351    95.073091    14.657904    27.986623 
   80400    238.44235    -465.4055    204420.41   -23376.559    1730.6796   -25107.238   -1051.9266    568.29249    95.072232    14.658263    27.991617 
   80600    234.37062   -269.87406    204420.41    -23366.86    1701.1258   -25067.986   -421.39854    567.59154    95.071214    14.660183    28.000237 
   80800    240.71146    -195.2191    204420.41   -23289.348    1747.1494   -25036.498   -152.10057     566.4066    95.070649    14.658762    28.015628 
   81000    234.25003   -237.13163    204420.41   -23272.527    1700.2505   -24972.777   -293.08169    566.67343    95.069574    14.658551    28.009366 
   81200    242.42135   -483.35753    204420.41   -23248.064    1759.5602   -25007.624   -1181.3081    568.76787    95.069479    14.657685    28.005252 
   81400    239.99474   -303.35569    204420.41   -23238.058    1741.9472   -24980.005   -514.98322    568.13094    95.071059    14.658823    28.003187 
   81600    234.23536   -253.41842    204420.41   -23305.487    1700.1441   -25005.631   -331.97243    568.62843    95.071691    14.657696    27.995372 
   81800    236.48873   -345.93545    204420.41   -23334.149    1716.4997   -25050.649    -692.8214    571.44034    95.071944    14.657758    27.981834 
   82000    238.52764   -282.67584    204420.41   -23269.018    1731.2986   -25000.316   -423.72501    574.21659    95.071246    14.659904    28.012677 
   82200    245.74497   -361.63754    204420.41   -23224.352    1783.6839   -25008.036   -748.69854    575.86698    95.071898    14.658423    28.015843 
   82400    238.66091   -345.56444    204420.41   -23269.025    1732.2659   -25001.291   -667.29864    576.07544    95.070554    14.656695    28.009966 
   82600    245.57174   -281.18682    204420.41   -23189.798    1782.4266   -24972.225    -455.0292    578.69197    95.069066    14.656375    28.033031 
   82800    238.39472   -641.28875    204420.41   -23267.625    1730.3338   -24997.959   -1704.6835     579.9662    95.069502    14.657731    28.023178 
   83000     249.1436   -397.94658    204420.41   -23208.858    1808.3522    -25017.21   -844.22042    579.79634    95.070111    14.657715    28.023602 
   83200     236.1312   -310.69434    204420.41   -23244.507    1713.9046   -24958.412     -546.952    581.11377     95.06993    14.658171    28.001388 
   83400    244.51483   -274.69489    204420.41   -23240.848    1774.7553   -25015.603   -469.25285    583.99475    95.068945    14.656636    27.989061 
   83600    238.40324   -392.67095    204420.41   -23332.093    1730.3956   -25062.489   -850.95215    584.68581    95.068747    14.656338    28.005245 
   83800     244.0966   -229.27589    204420.41    -23312.59    1771.7196    -25084.31   -266.27837    584.72329     95.06965    14.656937    28.020305 
   84000    235.26274    -324.6146    204420.41   -23303.474    1707.6011   -25011.075     -607.031    585.24338     95.07044    14.656329    28.030899 
   84200    244.53443   -391.05445    204420.41   -23240.809    1774.8975   -25015.707   -853.77123    584.20104     95.07128    14.651064    28.020008 
   84400    238.31396   -342.87201    204420.41    -23321.61    1729.7477   -25051.357   -674.75499    582.61969    95.071035    14.647848    28.001984 
   84600    239.45068   -277.68377    204420.41   -23260.731    1737.9983    -24998.73   -443.21003    581.80301    95.071655    14.645286    28.012278 
   84800    240.32257   -245.46118    204420.41   -23303.901    1744.3267   -25048.228   -355.30808     582.9546    95.070855    14.645343    28.011452 
   85000    240.44082   -263.84532    204420.41   -23234.438     1745.185   -24979.623   -438.55527     584.3923    95.071241    14.642504    28.027215 
   85200    246.95033    -317.7255    204420.41   -23213.281    1792.4327   -25005.714    -597.8371    582.30935    95.071687    14.641084    28.048956 
   85400    240.77056   -442.45015    204420.41   -23318.913    1747.5783   -25066.491   -1008.1337    581.77086    95.070881    14.641385     28.05579 
   85600    239.24945    -489.7535    204420.41   -23308.174    1736.5377   -25044.712   -1212.7321    580.89343    95.069301    14.640462    28.053751 
   85800    232.82737   -279.11102    204420.41   -23312.436    1689.9245    -25002.36   -438.76683    582.02641    95.067569    14.641823    28.070895 
   86000    240.75941   -345.80313    204420.41   -23238.042    1747.4974    -24985.54   -663.28098    582.27385    95.067634    14.642417     28.08304 
   86200    237.64927   -195.61701    204420.41   -23233.752    1724.9232   -24958.676   -153.49578    581.97476    95.068377    14.644478    28.085765 
   86400    232.46728   -246.10353    204420.41   -23328.574    1687.3109   -25015.885   -369.37226    582.92257    95.069778    14.644529    28.108709 
   86600    237.97301   -305.04765    204420.41   -23245.787    1727.2729    -24973.06   -543.23627    585.17205    95.068347    14.644734        28.11 
   86800    232.11939   -361.41965    204420.41   -23299.019    1684.7858   -24983.805   -746.86376    586.10618    95.068477    14.641061    28.105852 
   87000    241.64856   -286.05725    204420.41   -23271.311    1753.9511   -25025.262   -469.40475    589.57768    95.068642    14.639834    28.115194 
   87200    244.44051   -276.13612    204420.41   -23222.736    1774.2158   -24996.952   -433.46887    590.61619    95.069498    14.637148    28.090972 
   87400    238.25975   -536.45975    204420.41   -23295.937    1729.3542   -25025.291   -1310.8199    592.45911    95.070896    14.635255    28.076321 
   87600    241.61928   -388.67324    204420.41   -23192.605    1753.7386   -24946.343   -797.03315    594.41807    95.070345    14.636021    28.090729 
   87800    237.53712   -305.22202    204420.41   -23236.383    1724.1091   -24960.492   -542.64498    596.60505    95.071271    14.635845    28.108887 
   88000    239.34609   -342.83221    204420.41   -23262.639    1737.2392   -24999.878   -638.04116    598.93407    95.071193    14.633905    28.103092 
   88200    239.56047   -475.35331    204420.41   -23278.031    1738.7952   -25016.826   -1166.3009    604.83126    95.069561     14.63086     28.10358 
   88400    243.78361    -296.0534    204420.41   -23246.248    1769.4479   -25015.696   -489.46641    602.65078    95.069741    14.629164    28.110855 
   88600    232.61354   -305.62402    204420.41   -23294.418    1688.3724    -24982.79   -570.05381    601.10733     95.06888    14.628201    28.098481 
   88800    235.95881   -372.54906    204420.41   -23287.808    1712.6534   -25000.461   -778.02183    603.97364    95.069608    14.628659    28.100297 
   89000    239.42727   -388.15288    204420.41   -23257.598    1737.8284   -24995.426   -843.71128    605.44488    95.068665    14.629021    28.094102 
   89200    243.94519   -307.31855    204420.41   -23232.051    1770.6206   -25002.671    -532.6469    606.50495    95.070034    14.629192    28.091868 
   89400    246.03053   -240.97216    204420.41   -23172.771    1785.7567   -24958.528   -349.37528    607.21848    95.069861    14.627176    28.111277 
   89600    233.98274   -263.97481    204420.41   -23340.844    1698.3105   -25039.155   -387.79117    609.29624    95.070665    14.627138    28.108201 
   89800    244.03469   -460.39107    204420.41   -23221.902    1771.2703   -24993.172   -1063.8621    612.96847    95.069569    14.624476    28.092746 
   90000    242.05853   -264.30495    204420.41   -23233.532    1756.9267   -24990.458   -383.75827    615.67033    95.071072    14.622888    28.098857 
   90200    240.06622   -310.79403    204420.41   -23283.026    1742.4661   -25025.492   -508.95382     619.0862    95.070393    14.619664    28.106466 
   90400    243.93672   -381.28514    204420.41   -23242.289    1770.5592   -25012.848   -821.41446    620.69855    95.069679    14.618798    28.096364 
   90600    237.23903    -527.5081    204420.41   -23272.053    1721.9455   -24993.999    -1314.685     619.9279    95.071232    14.615585    28.082121 
   90800    242.69055   -229.83037    204420.41   -23278.163    1761.5142   -25039.677   -297.08671    621.75002     95.07114    14.614503    28.080161 
   91000    235.62308    -250.6462    204420.41   -23305.946    1710.2165   -25016.163   -358.16004    620.90968    95.072349    14.615018    28.074356 
   91200     234.2046   -181.17391    204420.41   -23325.468    1699.9208   -25025.389   -97.989319    621.21259    95.074301    14.614485    28.089023 
   91400    237.60148   -466.15202    204420.41     -23313.7    1724.5763   -25038.276   -1104.2826    623.86611    95.074319    14.614209    28.108081 
   91600     243.6842   -253.14966    204420.41   -23210.526    1768.7264   -24979.252   -388.31486    624.50496    95.073905    14.616123    28.112055 
   91800    245.50281   -362.25443    204420.41   -23243.954    1781.9263   -25025.881   -704.62678    626.09268    95.072274    14.613881    28.098386 
   92000    239.78696   -290.75161    204420.41   -23203.677    1740.4391   -24944.116   -487.54172    628.37946    95.070484    14.613471    28.105065 
   92200    239.56616   -419.74605    204420.41   -23168.881    1738.8365   -24907.717   -962.85794    631.60265    95.070973    14.617204     28.09607 
   92400    239.90525   -313.33197    204420.41   -23174.141    1741.2977   -24915.439   -577.00235    632.30376    95.070525    14.618371    28.081473 
   92600    247.24269   -293.37505    204420.41   -23137.343    1794.5548   -24931.897   -519.64977    633.70111    95.071548    14.621014    28.079805 
   92800    235.95429   -327.62172    204420.41   -23239.249    1712.6205    -24951.87   -653.08569    636.67283     95.07137    14.619202    28.078926 
   93000    233.45711   -347.62928    204420.41   -23271.356    1694.4953   -24965.852   -703.50735    637.56742    95.070241    14.621137    28.074549 
   93200    239.57724   -303.94982    204420.41   -23244.112    1738.9169   -24983.029   -550.62546    639.17816    95.069698    14.622533    28.077527 
   93400    236.29296   -244.81791    204420.41   -23301.503    1715.0787   -25016.581   -318.63774    642.59803    95.071219     14.62376    28.079402 
   93600    242.67053   -434.08762    204420.41   -23261.063    1761.3688   -25022.432    -971.4061    651.41882    95.073488     14.62803    28.080841 
   93800    230.83609   -474.50814    204420.41   -23301.251    1675.4712   -24976.722   -1120.7973    654.00494    95.074204    14.629612    28.099115 
   94000    242.86794     -105.321    204420.41   -23324.386    1762.8017   -25087.188    134.85285    650.57701    95.073503    14.629374    28.111903 
   94200    241.72099   -215.55619    204420.41   -23198.082    1754.4768   -24952.559   -241.69042    647.35538    95.071454    14.627027    28.100711 
   94400    240.23493   -302.83834    204420.41   -23237.564    1743.6906   -24981.255   -513.83272    643.91341    95.071414    14.625603    28.081983 
   94600    235.35245    -250.5413    204420.41   -23211.339    1708.2522   -24919.592   -369.37799    644.45342    95.072021    14.623824    28.085033 
   94800    237.52951   -347.27758    204420.41   -23195.763    1724.0539   -24919.817   -652.70048    645.92887    95.073335    14.626034    28.077686 
   95000    243.16457   -379.83856    204420.41   -23267.171    1764.9547   -25032.126   -786.13271    647.68948     95.07259    14.626666     28.08352 
   95200    237.72229   -348.85052    204420.41   -23268.205    1725.4532   -24993.658   -659.53734    650.31079    95.073279    14.623992    28.077249 
   95400    240.19479   -281.66131    204420.41   -23250.721    1743.3992    -24994.12   -431.67378      651.956    95.072096    14.621684    28.076972 
   95600    239.19166   -306.62129    204420.41   -23223.564    1736.1183   -24959.683   -526.41624    649.68691    95.070708    14.621729    28.092068 
   95800    240.27879   -540.88109    204420.41   -23208.388     1744.009   -24952.397   -1371.7143    651.97135     95.06935    14.624915    28.092655 
   96000    240.93091   -445.18563    204420.41   -23173.074    1748.7422   -24921.816   -1046.4208    652.52356    95.068526    14.626355    28.110099 
   96200    245.03847   -317.16885    204420.41   -23147.822     1778.556   -24926.378   -589.68909    652.43072    95.069689    14.626189    28.115949 
   96400     241.7191    -290.9369    204420.41   -23236.745    1754.4631   -24991.208   -474.08796    649.85789    95.068198    14.623565    28.100896 
   96600    237.25847   -321.86858    204420.41    -23244.78    1722.0866   -24966.867    -603.3355    650.50654    95.068557    14.623132    28.099928 
   96800    245.49467   -204.41448    204420.41   -23230.224    1781.8672   -25012.091   -217.79628    652.51693    95.067862    14.623742    28.114152 
   97000    243.30074   -459.49455    204420.41   -23257.841    1765.9431   -25023.784   -1058.2981    655.06584    95.067573    14.623018    28.113674 
   97200    238.66627   -248.92277    204420.41   -23245.883    1732.3048   -24978.188   -333.86911    654.04911    95.066737    14.621541    28.111224 
   97400    248.48323   -478.21194    204420.41   -23240.717     1803.559   -25044.276   -1129.2544    653.95551    95.065179    14.618049     28.11272 
   97600    242.12609   -308.58803    204420.41    -23181.01    1757.4171   -24938.427   -581.82458    657.12706    95.064012    14.617109    28.114746 
   97800    242.31208    -475.2425    204420.41   -23216.695    1758.7671   -24975.462   -1103.6333    657.33769    95.062869    14.615625    28.120745 
   98000    238.02845   -142.48524    204420.41   -23251.579    1727.6754   -24979.255    32.766093    657.82737    95.062369    14.614236    28.095782 
   98200    240.17221   -388.41109    204420.41   -23269.543    1743.2353   -25012.778   -794.03756    657.36892    95.061554    14.616058    28.101627 
   98400    242.52243   -494.54153    204420.41   -23180.047    1760.2939   -24940.341    -1169.963    658.15246    95.061195    14.618238    28.103392 
   98600     233.5436   -476.47484    204420.41   -23228.395    1695.1231   -24923.518   -1113.3091     658.8755    95.063294    14.619264    28.104089 
   98800    239.33928   -248.78044    204420.41   -23201.426    1737.1897   -24938.616   -293.12685    661.78243    95.064286    14.619791     28.10343 
   99000    239.34664   -608.20527    204420.41   -23231.127    1737.2431    -24968.37   -1577.1095    666.77767    95.061902     14.61934    28.116587 
   99200    239.04672   -646.53656    204420.41   -23194.552    1735.0662   -24929.618   -1677.4285    669.39183    95.059466    14.618294    28.135637 
   99400    245.01083   -310.28671    204420.41   -23194.517    1778.3553   -24972.872    -556.6075    669.88766    95.058459    14.618286    28.137521 
   99600    240.41277   -350.23608    204420.41   -23216.413    1744.9814   -24961.394   -705.29362    673.39589     95.06068    14.618191    28.132114 
   99800    243.13081   -368.58044    204420.41   -23243.611    1764.7097    -25008.32   -752.72962    672.17277    95.061456    14.617299    28.158531 
  100000    237.99962    -381.4483    204420.41   -23276.037    1727.4661   -25003.503   -808.70767    668.29162      95.0618    14.614513    28.134029 
  100200    238.92084   -455.88135    204420.41   -23335.579    1734.1525   -25069.731   -1049.7154    665.90958    95.060206    14.615985    28.135739 
  100400    244.20162     -376.616    204420.41   -23244.293    1772.4819   -25016.775   -779.12305    663.85758    95.060885     14.61681    28.126356 
  100600     236.4296   -281.91372    204420.41    -23216.84    1716.0704    -24932.91   -415.85913    667.02343    95.059557    14.616687    28.104405 
  100800    240.50362   -306.52262    204420.41   -23275.126    1745.6408   -25020.767   -551.04068    670.16428    95.058638    14.617616    28.090757 
[...]
 5175800     227.2181     -98.1676    204420.41   -25510.849    1649.2109    -27160.06    163.25384    6972.8845    94.100825      13.9404    27.899113 
 5176000    225.48884   -211.64857    204420.41   -25527.589    1636.6594   -27164.248   -245.70005    6980.0231    94.099754    13.942101    27.905643 
 5176200    220.09122    -38.44176    204420.41   -25541.907    1597.4821   -27139.389    333.98881    6982.5324    94.099838    13.944206     27.89734 
 5176400    229.44539   -116.38654    204420.41   -25481.124    1665.3772   -27146.501    91.969757    6985.4992    94.099462     13.94395    27.898136 
 5176600      232.655   -38.483413    204420.41   -25416.298    1688.6734   -27104.971    363.03035    6969.0989    94.097313    13.946972    27.899831 
 5176800    225.13579   -241.92693    204420.41   -25467.918    1634.0969   -27102.015   -331.71374    6976.2563    94.097202    13.946948    27.891145 
 5177000    230.66813     92.01917    204420.41    -25461.03    1674.2521   -27135.282    806.95731    6972.7645    94.096281    13.949466    27.885859 
 5177200    230.57932   -259.32189    204420.41   -25421.317    1673.6075   -27094.924   -436.22625     6987.568    94.095992    13.950375    27.901644 
 5177400    236.71692   -65.972686    204420.41   -25390.486    1718.1559   -27108.642    223.95404    6976.0451    94.095633    13.950531     27.89065 
 5177600     226.0924   -97.362007    204420.41   -25479.927    1641.0402   -27120.967    144.93814    6970.4381    94.094379    13.951201    27.895732 
 5177800    224.32871   -97.734525    204420.41   -25496.582    1628.2389   -27124.821    128.69403    6969.4219    94.094187    13.952428    27.891586 
 5178000    225.76099   -192.94949    204420.41   -25495.608    1638.6347   -27134.242   -195.27434    6975.1978    94.093803    13.953088     27.90496 
 5178200    225.37958   -150.64658    204420.41   -25480.551    1635.8664   -27116.418   -30.724855    6980.3094    94.092414    13.954155    27.904658 
 5178400    229.01776   -89.860138    204420.41    -25489.54    1662.2733   -27151.814    158.88222    6979.5911    94.091579    13.954811    27.906782 
 5178600     229.4235   -168.42375    204420.41   -25459.629    1665.2183   -27124.848   -121.95234     6972.706    94.090561    13.956001    27.898882 
 5178800    226.28881   -23.871938    204420.41   -25469.206    1642.4658   -27111.672     419.8858     6964.994    94.089077    13.956041    27.890647 
 5179000    224.28912   -213.29675    204420.41    -25499.03    1627.9515   -27126.982   -238.05466     6979.477    94.087911     13.95654    27.901492 
 5179200    227.87249   -25.189316    204420.41   -25498.697    1653.9607   -27152.657     379.5604    6975.2231    94.086778    13.955971    27.898362 
 5179400    228.67652   -158.77934    204420.41   -25441.366    1659.7965   -27101.162   -56.205119    6980.1896    94.086121    13.955592    27.904054 
 5179600    224.91055   -94.407026    204420.41   -25500.292    1632.4621   -27132.754    168.09595    6975.6512    94.085894    13.955937     27.90209 
 5179800    221.47473    5.2025693    204420.41   -25487.691     1607.524   -27095.215    508.59458    6972.2272    94.085687    13.956337    27.907749 
 5180000    220.68728   -202.37527    204420.41   -25580.137    1601.8084   -27181.945   -222.64901    6974.1728    94.084166    13.956597    27.889655 
 5180200    227.32426   -47.065369    204420.41   -25558.986    1649.9814   -27208.967    359.42277    6972.6681    94.084429    13.957208    27.895721 
 5180400    226.46688   -286.61526    204420.41   -25477.887    1643.7583   -27121.646   -479.75559    6980.1722    94.084495    13.958748    27.893599 
 5180600    230.58435    -7.897625    204420.41   -25485.588    1673.6441   -27159.232    454.24349    6965.6352    94.084194    13.958563    27.888743 
 5180800    221.65369   -225.50826    204420.41   -25510.489    1608.8229   -27119.312    -305.3993    6971.1465    94.083352    13.957975    27.889998 
 5181000    225.78621   -37.166751    204420.41   -25562.221    1638.8178   -27201.039    372.33287    6971.6651    94.081611    13.958267    27.882206 
 5181200    219.07268   -204.60416    204420.41    -25525.89    1590.0892   -27115.979   -240.44359    6975.8455    94.081636    13.957989    27.882019 
 5181400    229.42501   -9.3427151    204420.41   -25445.884    1665.2292   -27111.114    472.62247    6973.0974    94.081582    13.956706    27.894695 
 5181600    222.39162    -102.5526    204420.41   -25572.351    1614.1789    -27186.53    127.26222    6971.4396    94.080713     13.95572    27.885614 
 5181800    230.64627   -95.319438    204420.41   -25460.011    1674.0935   -27134.104    122.07109    6969.9755    94.081612    13.955077    27.890129 
 5182000    222.76261    -95.09072    204420.41   -25482.237    1616.8717   -27099.109    169.97291     6976.163    94.080513    13.954557    27.890683 
 5182200    228.79212   -106.71902    204420.41   -25445.064    1660.6355     -27105.7    122.45624    6977.5561    94.080185    13.954281     27.88366 
 5182400    223.20516   -167.62927    204420.41   -25532.901    1620.0839   -27152.985   -94.033339    6974.1072    94.079467    13.954792    27.899638 
 5182600    224.48621   -65.487548    204420.41   -25491.117    1629.3821   -27120.499      249.059    6973.7918    94.079063    13.954351    27.890574 
 5182800    223.41374   -46.532544    204420.41   -25469.258    1621.5978   -27090.855    326.67868    6969.3647    94.077657    13.955296    27.902355 
 5183000    224.81501   -275.46344    204420.41   -25443.884    1631.7686   -27075.653    -487.6108    6975.0967    94.076709    13.954891    27.897216 
 5183200    230.81122    -83.23694    204420.41   -25454.766    1675.2907   -27130.056     188.5179    6972.6242    94.076249    13.954987    27.898423 
 5183400    223.68071   -182.71463    204420.41   -25574.656    1623.5355   -27198.191   -150.36191    6974.6117    94.076016    13.954395    27.899133 
 5183600    222.45749   -199.80875    204420.41   -25547.184     1614.657   -27161.841   -181.69407    6972.6234    94.075064    13.952958    27.904637 
 5183800    220.28789   -170.28484    204420.41   -25529.606    1598.9096   -27128.516   -126.17676    6975.3293    94.074568    13.951051    27.915531 
 5184000    234.93361   -89.005004    204420.41   -25452.959    1705.2122   -27158.171    193.55766    6973.8776    94.074398    13.950558    27.900414 
 5184200    228.58342   -116.76542    204420.41   -25481.761    1659.1207   -27140.881    61.474675    6972.6334     94.07438    13.950493    27.895679 
 5184400    231.23028   -121.21095    204420.41   -25457.432    1678.3324   -27135.764    88.876483    6974.3848    94.074053    13.949081    27.896124 
 5184600    229.49164   -174.96199    204420.41   -25504.275    1665.7129   -27169.988   -137.48982     6969.925    94.072054    13.947341    27.893513 
 5184800    232.42169   -205.92872    204420.41   -25482.565    1686.9799   -27169.545    -201.3009    6976.7434    94.070689    13.947055    27.898308 
 5185000    227.44377   -60.657973    204420.41   -25492.061    1650.8488    -27142.91    218.55658    6973.8156    94.070049    13.945385    27.897101 
 5185200    219.90018   -139.97988    204420.41   -25549.609    1596.0954   -27145.704    34.398134    6976.5759    94.069976    13.945614    27.904251 
 5185400    228.56699   -153.90886    204420.41   -25487.561    1659.0015   -27146.562   -63.418169    6971.4041    94.070939    13.944986    27.903399 
 5185600    223.99542   -77.521779    204420.41   -25486.373    1625.8198   -27112.192    200.36894    6971.5066    94.070775    13.945376     27.90441 
 5185800    226.55563   -139.76463    204420.41   -25462.779    1644.4025   -27107.181   -1.5122006    6974.9602    94.069988    13.945845     27.90751 
 5186000    230.15524   -193.81898    204420.41   -25465.358    1670.5294   -27135.887   -241.65535    6976.3252    94.069105     13.94652    27.906132 
 5186200     229.4206    50.784568    204420.41   -25442.572    1665.1972   -27107.769    675.85993    6973.7568    94.068635    13.947408     27.92507 
 5186400    228.18584   -207.44827    204420.41   -25482.716     1656.235   -27138.951   -241.45804    6971.7533    94.068125    13.947244    27.908582 
 5186600    229.06573   -27.243773    204420.41   -25467.462    1662.6215   -27130.084    395.61982    6970.2001    94.067784    13.948258    27.911614 
 5186800    225.29729   -187.75352    204420.41   -25482.787    1635.2692   -27118.056   -125.14937    6982.2213    94.066456    13.947776    27.899571 
 5187000    227.63718   -43.920217    204420.41   -25461.541    1652.2527   -27113.793    302.13427     6975.593    94.065168    13.947908    27.898691 
 5187200    225.55915   -263.22152    204420.41   -25508.885    1637.1698   -27146.055   -405.32729    6977.3718    94.064575    13.947732    27.899862 
 5187400    222.98624   -10.148504    204420.41   -25541.142    1618.4949   -27159.637    437.42265    6968.3205    94.064452    13.948361     27.90056 
 5187600    229.06396   -215.88807    204420.41    -25459.37    1662.6087   -27121.979   -275.93411    6976.0978    94.063416    13.948038    27.902597 
 5187800    226.75722   -84.276322    204420.41   -25506.294    1645.8657   -27152.159    170.53586    6974.4466    94.063131    13.947656    27.901305 
 5188000    231.05464   -187.95785    204420.41   -25451.804    1677.0575   -27128.861   -150.83421    6975.7281     94.06355    13.946882    27.888609 
 5188200    230.56944   -209.96422    204420.41   -25482.691    1673.5359   -27156.227   -273.13253    6975.0275    94.063417    13.947269    27.895792 
 5188400    224.26229   -12.314207    204420.41    -25480.15    1627.7568   -27107.907    441.66967    6971.0859      94.0629    13.947497    27.886013 
 5188600    222.02222   -190.35524    204420.41   -25511.062    1611.4978    -27122.56   -168.73764    6977.6914    94.062097    13.947552    27.898712 
 5188800    226.36607   -89.771161    204420.41   -25552.374    1643.0266     -27195.4    148.87427    6975.1268    94.062402     13.94773     27.88861 
 5189000    218.39629   -238.51802    204420.41   -25509.475    1585.1797   -27094.655     -340.219    6982.6867    94.061657    13.947723    27.899493 
 5189200    218.39399    5.8235662    204420.41   -25617.565    1585.1631   -27202.728    540.57242    6970.7823    94.061734    13.947756     27.90196 
 5189400    221.83499   -262.62595    204420.41    -25563.82    1610.1388   -27173.959   -448.80023    6975.0391    94.060298    13.947931    27.896167 
 5189600    228.85604    -145.0998    204420.41   -25481.508    1661.0995   -27142.608   -44.104152    6974.8658    94.059689    13.948231     27.89106 
 5189800    223.58529   -87.777777    204420.41   -25508.697    1622.8429    -27131.54    200.18569    6977.9056    94.058881    13.948107    27.898251 
 5190000     221.3876   -196.06577    204420.41   -25501.346    1606.8915   -27108.238   -202.33726    6979.5369    94.057791    13.947902    27.896083 
 5190200    230.94358   -93.277899    204420.41    -25525.81    1676.2514   -27202.061    188.25523    6974.8785    94.056691    13.948003     27.90075 
 5190400    229.58171   -222.02799    204420.41   -25433.195    1666.3666   -27099.562   -280.60151    6977.1938    94.055521    13.950021     27.90047 
 5190600    226.64045   -62.542504    204420.41   -25504.851    1645.0182   -27149.869    278.15822    6973.9529    94.054477    13.950762    27.902608 
 5190800    223.19421   -165.16026    204420.41   -25463.565    1620.0044    -27083.57   -74.794708    6975.8848    94.054387    13.950128    27.887089 
 5191000    224.20114   -132.78635    204420.41   -25492.962     1627.313   -27120.275    41.125492    6977.9195    94.053207    13.948733    27.886184 
 5191200    226.90248   -100.88264    204420.41   -25491.768      1646.92   -27138.688     95.56165    6970.8275    94.053714    13.947078    27.888393 
 5191400    228.26799   -202.00635    204420.41   -25472.725    1656.8312   -27129.556   -225.28436    6972.6304    94.052605    13.945583    27.895085 
 5191600    228.31464   -105.69612    204420.41   -25501.162    1657.1699   -27158.332    153.82536    6972.4319    94.052705    13.945199    27.895371 
 5191800    229.94012   -125.18798    204420.41   -25455.473     1668.968   -27124.441    60.009924    6977.5808    94.051962    13.944162    27.888887 
 5192000    230.22137   -286.29988    204420.41   -25425.605    1671.0094   -27096.614     -537.155    6973.5479    94.053182    13.942331    27.900891 
 5192200    222.33034   -165.42259    204420.41   -25491.446    1613.7342    -27105.18   -90.600735    6969.7286    94.052925    13.941039    27.902814 
 5192400    225.62751   -158.72112    204420.41   -25494.842    1637.6659   -27132.508   -60.338511    6971.4291     94.05275    13.940612    27.903756 
 5192600    224.72839   -10.793762    204420.41   -25520.843    1631.1399   -27151.983    437.74521    6974.0651    94.051961    13.941162    27.897683 
 5192800    227.58566   -169.16866    204420.41   -25471.783    1651.8787   -27123.661   -92.863839    6974.7347    94.050291    13.940433    27.893877 
 5193000    219.83211   -196.94501    204420.41   -25533.193    1595.6014   -27128.794   -195.40285    6973.8198    94.049683    13.940291    27.905523 
 5193200    228.64193   -136.27179    204420.41   -25477.503    1659.5455   -27137.048    22.930543    6973.4013    94.048635    13.938196    27.901642 
 5193400    230.39583   -124.96573    204420.41   -25474.718    1672.2757   -27146.994    80.651457    6972.3084     94.04911    13.938176    27.904624 
 5193600    231.72877   -66.408875    204420.41     -25465.7    1681.9506   -27147.651    290.80992    6973.8695    94.048526    13.937232    27.913385 
 5193800    225.34053   -201.63262    204420.41   -25482.261     1635.583   -27117.844   -222.90102    6976.2504    94.048587    13.936654    27.908841 
 5194000    223.53823   -104.06968    204420.41   -25589.714    1622.5013   -27212.216    117.85588    6971.0721    94.048189    13.936471    27.903969 
 5194200    224.09876   -171.18768    204420.41   -25530.702    1626.5699   -27157.272   -96.034978    6968.6613    94.047522    13.937124    27.896138 
 5194400    225.79782   -129.34729    204420.41   -25482.089    1638.9021   -27120.991  -0.59135645    6972.3271    94.046445    13.935273    27.897338 
 5194600    229.66964   -114.20914    204420.41   -25448.826    1667.0048   -27115.831    78.392259    6973.7732    94.045817    13.934447    27.905085 
 5194800    230.33974   -130.20732    204420.41   -25459.079    1671.8686   -27130.948    55.134913    6978.7494    94.046449    13.934887    27.905878 
 5195000    227.62163   -30.735775    204420.41   -25474.871    1652.1398    -27127.01    387.21843    6972.9984    94.046188    13.934593     27.90688 
 5195200    228.66568   -193.73711    204420.41   -25456.878    1659.7178   -27116.596   -180.15841     6970.464    94.046473    13.933364    27.902274 
 5195400    227.70645    11.504343    204420.41   -25470.177    1652.7554   -27122.933     532.8875    6966.7904    94.046754    13.933256    27.909003 
 5195600    223.65258   -184.60234    204420.41   -25511.473    1623.3313   -27134.805   -155.43967    6975.3894    94.046717    13.933121    27.906831 
 5195800    230.64679   -97.510642    204420.41   -25387.997    1674.0973   -27062.094    153.16125    6972.6767    94.047622    13.933073    27.909517 
 5196000    227.49812   -217.68675    204420.41   -25465.724    1651.2434   -27116.967   -287.99213    6975.9957    94.047777    13.931556    27.911672 
 5196200    229.10061   -110.69414    204420.41   -25471.622    1662.8746   -27134.497    135.99402    6969.4931    94.048079    13.929824    27.909476 
 5196400    228.67513   -126.45941    204420.41   -25465.544    1659.7864   -27125.331    21.090254    6972.2275    94.047841    13.928136    27.913782 
 5196600    231.98015   -77.741364    204420.41   -25447.159    1683.7751   -27130.934    214.35803     6973.656    94.047491    13.928291    27.903193 
 5196800    229.80831   -212.79083    204420.41   -25451.479    1668.0113    -27119.49   -265.50159    6983.2877    94.047642    13.929131    27.899772 
 5197000    229.28564   -147.24984    204420.41   -25415.756    1664.2177   -27079.974   -47.470039    6975.9814    94.047975    13.929361    27.903932 
 5197200    224.97542   -129.08429    204420.41   -25512.551    1632.9329   -27145.484    36.877906    6972.7284    94.048314     13.92979    27.913197 
 5197400    230.48511   -235.45482    204420.41   -25508.342    1672.9238   -27181.265   -360.96089    6975.1255    94.047749    13.929534    27.915965 
 5197600    224.64045   -76.631099    204420.41   -25532.221    1630.5016   -27162.722    174.62936    6975.3682    94.046974    13.929205    27.910896 
 5197800    222.06315   -138.10138    204420.41   -25567.213    1611.7949   -27179.007    37.781596    6981.2721    94.045862    13.928586    27.906764 
 5198000     231.9397   -75.086773    204420.41   -25449.186    1683.4816   -27132.667    197.55417     6973.215    94.045732    13.928896    27.926064 
 5198200    229.24226   -236.16101    204420.41   -25465.356    1663.9028   -27129.259   -313.90928    6971.3681     94.04564    13.929913    27.921133 
 5198400    222.02996   -48.399185    204420.41   -25518.919    1611.5539   -27130.473      317.055    6969.5663    94.043831    13.931194    27.927153 
 5198600    223.62528   -148.65581    204420.41    -25578.06    1623.1332   -27201.193   -24.567531    6977.9025    94.043403    13.931103    27.930373 
 5198800    226.92465   -128.47106    204420.41   -25490.728     1647.081   -27137.809   -4.4378219     6976.857    94.043389    13.932048    27.929123 
 5199000    230.51294   -128.47414    204420.41   -25435.356    1673.1257   -27108.482    28.430794     6977.083    94.042856     13.93245    27.912415 
 5199200    232.67495   -168.54187    204420.41   -25491.193    1688.8182   -27180.011   -123.31044    6974.7306    94.042054     13.93315    27.911196 
 5199400    230.74151   -77.239731    204420.41   -25488.215    1674.7848   -27162.999    199.99343    6971.8786    94.041741    13.932898     27.92935 
 5199600    229.87615   -101.01901    204420.41   -25470.687    1668.5038    -27139.19    157.35867    6977.8536    94.042389    13.933024    27.928239 
 5199800    226.39758   -138.28567    204420.41   -25483.546    1643.2553   -27126.802   -17.821832    6978.9574    94.042546    13.935148    27.925248 
 5200000     227.1214   -128.35654    204420.41   -25438.638     1648.509   -27087.147    54.341291    6976.3106    94.042244    13.935539    27.920894 
Loop time of 5438.59 on 64 procs for 5200000 steps with 8482 atoms

Performance: 826.097 ns/day, 0.029 hours/ns, 956.130 timesteps/s
100.0% CPU use with 64 MPI tasks x no OpenMP threads

MPI task timing breakdown:
Section |  min time  |  avg time  |  max time  |%varavg| %total
---------------------------------------------------------------
Pair    | 0.42872    | 1844.6     | 4114       |3623.2 | 33.92
Neigh   | 4.6326     | 222.38     | 489.11     |1126.7 |  4.09
Comm    | 111.67     | 1123.2     | 3578.5     |3015.2 | 20.65
Output  | 137.49     | 137.55     | 137.77     |   0.3 |  2.53
Modify  | 183.74     | 2050.7     | 5122.3     |4442.0 | 37.71
Other   |            | 60.08      |            |       |  1.10

Nlocal:    132.531 ave 258 max 0 min
Histogram: 16 0 1 6 9 0 2 14 6 10
Nghost:    806.031 ave 1121 max 520 min
Histogram: 14 8 7 3 0 4 3 2 19 4
Neighs:    0 ave 0 max 0 min
Histogram: 64 0 0 0 0 0 0 0 0 0
FullNghs:  13202.9 ave 28544 max 0 min
Histogram: 16 16 0 0 0 0 2 8 11 11

Total # of neighbors = 844984
Ave neighs/atom = 99.6208
Neighbor list builds = 549917
Dangerous builds = 0
write_data 		${DIR}/data.${NAME}_run
write_data 		run_9/data.${NAME}_run
write_data 		run_9/data.ibeam_cooling_9_run
Total wall time: 1:30:49
