
### Dimensions ###


### IMPORT ATOMS ###
read_data ../Box_Setup/data.Ibeam_240K
Reading data file ...
  orthogonal box = (0.0000000 0.0000000 0.0000000) to (68.908000 85.848302 27.975384)
  8 by 8 by 2 MPI processor grid
  reading atoms ...
  8493 atoms
  reading velocities ...
  8493 velocities
  read_data CPU = 0.020 seconds
group water type 2
1689 atoms in group water
group graphite type 1
6804 atoms in group graphite


# Define potential
#
pair_style          sw
pair_coeff * * MLC_e.sw C mW

# Add velocity/set timestep
#

fix		1 graphite setforce 0.0 0.0 0.0
velocity 	graphite set 0.0 0.0 0.0
velocity            water create ${START_TEMP} ${SEED} rot yes dist gaussian
velocity            water create 240 ${SEED} rot yes dist gaussian
velocity            water create 240 15589 rot yes dist gaussian
timestep            5.0

# Define output
#
compute 1 water msd
compute 2 water temp


thermo	            100
thermo_style custom step c_2 press vol etotal ke pe c_1[4] density

# Neighbor lists
#
neigh_modify        delay 0 every 1 check yes


# Set fixes
#
fix                 2 water momentum 10 linear 1 1 1 rescale
fix                 3 all nve
fix                 4 water temp/csvr ${START_TEMP} ${START_TEMP} 500.0 928347
fix                 4 water temp/csvr 240 ${START_TEMP} 500.0 928347
fix                 4 water temp/csvr 240 240 500.0 928347

# Run 0.05 ns equilibration
#
dump                1 all custom 100 ${DIR}/eq.${NAME}.dump id type x y z vx vy vz
dump                1 all custom 100 run_2/eq.${NAME}.dump id type x y z vx vy vz
dump                1 all custom 100 run_2/eq.ibeam_cooling_2.dump id type x y z vx vy vz
run                 10000
Neighbor list info ...
  update every 1 steps, delay 0 steps, check yes
  max neighbors/atom: 2000, page size: 100000
  master list distance cutoff = 6.6747184
  ghost atom cutoff = 6.6747184
  binsize = 3.3373592, bins = 21 26 9
  1 neighbor lists, perpetual/occasional/extra = 1 0 0
  (1) pair sw, perpetual
      attributes: full, newton on
      pair build: full/bin/atomonly
      stencil: full/bin/3d
      bin: standard
Per MPI rank memory allocation (min/avg/max) = 3.603 | 4.507 | 4.728 Mbytes
Step c_2 Press Volume TotEng KinEng PotEng c_1[4] Density 
       0          240   -298.97748    165492.15   -16025.669    1207.5858   -17233.255            0    1.1252403 
     100    248.21854   -543.73983    165492.15   -16001.683    1248.9382   -17250.621   0.86290968    1.1252403 
     200    244.55227   -376.14334    165492.15   -16043.382     1230.491   -17273.873    1.3013658    1.1252403 
     300     244.0934   -458.11679    165492.15   -16039.739    1228.1821   -17267.921    1.7963877    1.1252403 
     400    237.97981   -515.41511    165492.15   -16056.221    1197.4209   -17253.642    2.1417891    1.1252403 
     500    236.99898   -395.26644    165492.15   -16070.599    1192.4858   -17263.085    2.5183078    1.1252403 
     600    232.44293   -477.55418    165492.15   -16157.219    1169.5615   -17326.781    2.8383588    1.1252403 
     700    238.65076   -448.40656    165492.15   -16137.376    1200.7969   -17338.173    3.1252311    1.1252403 
     800    230.56564   -433.58958    165492.15    -16174.41    1160.1158   -17334.525    3.6007635    1.1252403 
     900    237.49565   -545.82782    165492.15   -16137.732    1194.9849   -17332.717    3.9039017    1.1252403 
    1000    240.67525   -290.39669    165492.15   -16078.751    1210.9834   -17289.734    4.1475622    1.1252403 
    1100    236.69359   -458.71511    165492.15   -16099.848    1190.9492   -17290.797    4.5224463    1.1252403 
    1200    233.61355   -361.07423    165492.15   -16132.308    1175.4516    -17307.76    4.8776371    1.1252403 
    1300    233.50818   -313.98837    165492.15   -16084.123    1174.9215   -17259.044    5.1624414    1.1252403 
    1400    244.36913   -387.19407    165492.15   -16027.031    1229.5695   -17256.601    5.6556767    1.1252403 
    1500    240.57365    -635.2364    165492.15   -16024.399    1210.4721   -17234.872     6.102641    1.1252403 
    1600    241.23346   -536.04505    165492.15    -16019.72    1213.7921   -17233.512    6.4365732    1.1252403 
    1700    239.71008   -273.07493    165492.15   -16030.939     1206.127   -17237.066    6.7633667    1.1252403 
    1800    234.56587   -436.93062    165492.15   -16039.009    1180.2434   -17219.253    7.1164926    1.1252403 
    1900     245.3168   -467.80456    165492.15   -15957.661    1234.3378   -17191.999    7.4531005    1.1252403 
    2000    247.69141   -497.95043    165492.15    -15936.57    1246.2859   -17182.856    7.9780521    1.1252403 
    2100    241.04171   -457.26244    165492.15   -15945.944    1212.8272   -17158.771    8.4044064    1.1252403 
    2200    246.71836   -409.72923    165492.15   -15953.969    1241.3899   -17195.359    8.7592704    1.1252403 
    2300    248.20217   -434.10869    165492.15    -16005.12    1248.8559   -17253.976    9.0432245    1.1252403 
    2400    249.25439   -391.45294    165492.15   -16002.187    1254.1502   -17256.337    9.2098198    1.1252403 
    2500     241.8771   -591.55505    165492.15   -15986.009    1217.0306    -17203.04    9.7612704    1.1252403 
    2600    229.33667   -600.07523    165492.15   -16020.291    1153.9321   -17174.223    10.250521    1.1252403 
    2700    243.57924   -446.55795    165492.15   -15999.306    1225.5951   -17224.901    10.558475    1.1252403 
    2800    240.16837   -701.94574    165492.15   -16023.791    1208.4329   -17232.224    11.030478    1.1252403 
    2900    233.26407   -607.78908    165492.15   -16081.981    1173.6932   -17255.674    11.461472    1.1252403 
    3000    238.50833   -562.38822    165492.15   -16102.235    1200.0803   -17302.315    11.603671    1.1252403 
    3100    234.27257   -625.85922    165492.15   -16086.121    1178.7676   -17264.889    12.115864    1.1252403 
    3200     237.1019    -534.3106    165492.15    -16102.54    1193.0037   -17295.544    12.515942    1.1252403 
    3300    245.02319   -345.60541    165492.15   -16071.878    1232.8605   -17304.738    13.183163    1.1252403 
    3400    249.21365    -522.7748    165492.15   -16076.029    1253.9452   -17329.974    13.806228    1.1252403 
    3500    237.04349   -391.12955    165492.15   -16066.325    1192.7098   -17259.034    14.395955    1.1252403 
    3600    244.18415   -564.36423    165492.15   -16074.843    1228.6388   -17303.482    14.796464    1.1252403 
    3700    238.87672   -393.37652    165492.15   -16114.613    1201.9339   -17316.547     15.38004    1.1252403 
    3800    236.22641   -397.65781    165492.15   -16102.966    1188.5986   -17291.564    15.738938    1.1252403 
    3900    236.31499   -338.34796    165492.15   -16125.918    1189.0442   -17314.963    15.714274    1.1252403 
    4000    237.61836   -377.18698    165492.15   -16147.578    1195.6023   -17343.181    15.709991    1.1252403 
    4100    245.44766   -547.44886    165492.15   -16119.194    1234.9962    -17354.19    15.714832    1.1252403 
    4200    239.22611   -449.19566    165492.15   -16099.588    1203.6918    -17303.28    16.142907    1.1252403 
    4300    245.42489   -354.87425    165492.15    -16022.54    1234.8817   -17257.422    16.386361    1.1252403 
    4400      245.474   -476.55094    165492.15   -16030.226    1235.1288   -17265.355    16.564815    1.1252403 
    4500    240.02203    -471.1843    165492.15   -16073.972    1207.6966   -17281.669    16.536856    1.1252403 
    4600    235.61393   -379.39909    165492.15   -16108.144    1185.5168    -17293.66    16.447801    1.1252403 
    4700    236.76589   -718.72265    165492.15   -16123.703     1191.313   -17315.016    16.489125    1.1252403 
    4800    243.68962   -340.45846    165492.15   -16090.594    1226.1505   -17316.744    16.546666    1.1252403 
    4900    243.79823    -201.2501    165492.15   -16106.136     1226.697   -17332.833    16.640161    1.1252403 
    5000    240.03984    -338.2326    165492.15   -16145.767    1207.7863   -17353.553    16.739252    1.1252403 
    5100    230.07081   -337.04483    165492.15    -16169.42     1157.626   -17327.046    16.944355    1.1252403 
    5200    237.54666   -441.07524    165492.15   -16132.881    1195.2415   -17328.122    17.503222    1.1252403 
    5300    234.26722    -453.4933    165492.15   -16184.772    1178.7407   -17363.512      17.7971    1.1252403 
    5400    236.19439    -418.4203    165492.15   -16147.909    1188.4374   -17336.346    18.162613    1.1252403 
    5500    231.51109   -586.54474    165492.15   -16171.601    1164.8729   -17336.474     18.42335    1.1252403 
    5600    231.58165   -396.28955    165492.15   -16178.585     1165.228   -17343.813     18.76456    1.1252403 
    5700    238.23087   -420.60865    165492.15    -16133.45    1198.6842   -17332.134     18.97887    1.1252403 
    5800    250.13614   -288.45817    165492.15   -16053.455    1258.5868   -17312.042    19.101867    1.1252403 
    5900    240.18137   -724.64218    165492.15   -16075.644    1208.4984   -17284.143    19.563907    1.1252403 
    6000    231.58448   -329.48023    165492.15   -16140.419    1165.2422   -17305.661    19.532247    1.1252403 
    6100    229.09012    -416.1999    165492.15   -16120.065    1152.6916   -17272.756    19.769247    1.1252403 
    6200    238.72678   -577.02476    165492.15   -16082.254    1201.1794   -17283.433    20.208223    1.1252403 
    6300    241.00529   -391.85607    165492.15   -16047.841     1212.644   -17260.485    20.770879    1.1252403 
    6400    241.72198   -496.64958    165492.15   -16039.394    1216.2501   -17255.644    21.123974    1.1252403 
    6500    233.98622   -485.86651    165492.15    -16067.41    1177.3268   -17244.737    21.501907    1.1252403 
    6600    239.29712   -436.20283    165492.15   -16107.067    1204.0491   -17311.116    21.700807    1.1252403 
    6700    232.65021   -464.86464    165492.15   -16139.595    1170.6045     -17310.2    22.230291    1.1252403 
    6800    239.92184   -525.24286    165492.15   -16105.658    1207.1925    -17312.85    22.527469    1.1252403 
    6900    236.38968    -513.2825    165492.15   -16127.621    1189.4201   -17317.041    23.112811    1.1252403 
    7000    240.37907   -508.56598    165492.15   -16134.141    1209.4931   -17343.634    23.103241    1.1252403 
    7100    232.96097   -366.45555    165492.15   -16070.047    1172.1681   -17242.216    23.251153    1.1252403 
    7200    234.55243   -649.47315    165492.15   -16069.953    1180.1757   -17250.129    23.679818    1.1252403 
    7300    231.21426   -573.55547    165492.15    -16123.82    1163.3794     -17287.2    23.572295    1.1252403 
    7400    230.52508   -365.44062    165492.15   -16109.578    1159.9117    -17269.49    23.784271    1.1252403 
    7500    237.38233   -427.63206    165492.15   -16131.586    1194.4147       -17326    24.135796    1.1252403 
    7600    235.50821   -534.68356    165492.15   -16146.735    1184.9849    -17331.72    24.803418    1.1252403 
    7700    231.64848   -481.09863    165492.15   -16135.135    1165.5642   -17300.699    25.496115    1.1252403 
    7800     240.9798   -358.79619    165492.15   -16075.427    1212.5158   -17287.943    26.171995    1.1252403 
    7900    243.53661   -369.23513    165492.15   -16067.815    1225.3806   -17293.196    26.836554    1.1252403 
    8000    244.20496   -382.88029    165492.15   -16070.985    1228.7435   -17299.729    27.144944    1.1252403 
    8100    244.79954   -538.88882    165492.15   -16105.461    1231.7352   -17337.196    27.266944    1.1252403 
    8200    236.22608    -581.9721    165492.15   -16148.682    1188.5969   -17337.278    27.658193    1.1252403 
    8300    238.82893   -379.11179    165492.15   -16149.829    1201.6934   -17351.523    27.980521    1.1252403 
    8400    237.27116   -434.77946    165492.15   -16122.732    1193.8553   -17316.588    27.879221    1.1252403 
    8500    239.31102   -525.47477    165492.15   -16145.439    1204.1191   -17349.558    28.418058    1.1252403 
    8600    239.40517   -412.82875    165492.15   -16082.824    1204.5928   -17287.417    29.043625    1.1252403 
    8700    233.41835   -458.23752    165492.15   -16137.299    1174.4695   -17311.768    29.543345    1.1252403 
    8800    233.22703   -493.20858    165492.15   -16090.879    1173.5068   -17264.386    30.108445    1.1252403 
    8900    239.49272   -630.36103    165492.15   -16108.679    1205.0333   -17313.712    30.755178    1.1252403 
    9000    236.88327   -371.18156    165492.15   -16073.196    1191.9036     -17265.1    31.378718    1.1252403 
    9100     240.2688   -492.23252    165492.15   -16053.614    1208.9383   -17262.552    31.902514    1.1252403 
    9200    234.83423   -437.90351    165492.15   -16093.259    1181.5937   -17274.852    32.033108    1.1252403 
    9300    236.31258   -678.42487    165492.15   -16115.948    1189.0321    -17304.98    31.872838    1.1252403 
    9400     236.2628   -214.82974    165492.15   -16144.517    1188.7817   -17333.298    32.348303    1.1252403 
    9500    238.51596   -546.66179    165492.15   -16112.633    1200.1186   -17312.751    32.375771    1.1252403 
    9600     234.6492    -592.1589    165492.15   -16159.221    1180.6626   -17339.883    32.200325    1.1252403 
    9700    237.00542   -307.92624    165492.15   -16111.332    1192.5182   -17303.851    32.587807    1.1252403 
    9800    237.12199   -574.37361    165492.15   -16109.823    1193.1048   -17302.928    32.688133    1.1252403 
    9900    237.39628   -403.20367    165492.15   -16077.461    1194.4849   -17271.946    32.826896    1.1252403 
   10000    245.53109   -406.72865    165492.15   -16002.636     1235.416   -17238.052    32.976166    1.1252403 
Loop time of 5.98021 on 128 procs for 10000 steps with 8493 atoms

Performance: 722.383 ns/day, 0.033 hours/ns, 1672.183 timesteps/s
96.7% CPU use with 128 MPI tasks x no OpenMP threads

MPI task timing breakdown:
Section |  min time  |  avg time  |  max time  |%varavg| %total
---------------------------------------------------------------
Pair    | 0.00076818 | 1.8491     | 4.5843     | 117.3 | 30.92
Neigh   | 0.004216   | 0.13281    | 0.30908    |  27.8 |  2.22
Comm    | 0.21682    | 1.6705     | 4.2131     |  81.0 | 27.93
Output  | 0.14841    | 0.14849    | 0.1494     |   0.0 |  2.48
Modify  | 0.20545    | 2.1015     | 5.5357     | 131.7 | 35.14
Other   |            | 0.07788    |            |       |  1.30

Nlocal:        66.3516 ave         141 max           0 min
Histogram: 32 4 16 12 0 0 2 29 24 9
Nghost:        699.016 ave         918 max         491 min
Histogram: 16 5 17 13 11 18 9 22 3 14
Neighs:         0.00000 ave           0 max           0 min
Histogram: 128 0 0 0 0 0 0 0 0 0
FullNghs:      6961.02 ave       16715 max           0 min
Histogram: 43 21 0 0 0 0 14 30 13 7

Total # of neighbors = 891010
Ave neighs/atom = 104.91110
Neighbor list builds = 565
Dangerous builds = 0
write_data 	    ${DIR}/data.${NAME}_eq
write_data 	    run_2/data.${NAME}_eq
write_data 	    run_2/data.ibeam_cooling_2_eq
System init for write_data ...

undump              1
unfix               4



################################################
#######         Run Simulation         #########
################################################

reset_timestep      0
timestep	    10.0
log                 ${DIR}/log.run_${NAME}
log                 run_2/log.run_${NAME}
log                 run_2/log.run_ibeam_cooling_2
