
### Dimensions ###


### IMPORT ATOMS ###
read_data ../Box_Setup/data.Ibeam_240K
  orthogonal box = (0 0 0) to (157.504 36.4877 39.8503)
  10 by 4 by 4 MPI processor grid
  reading atoms ...
  8943 atoms
  reading velocities ...
  8943 velocities
group water type 2
2223 atoms in group water
group graphite type 1
6720 atoms in group graphite


# Define potential
#
pair_style          sw
pair_coeff * * MLC_e.sw C mW

# Add velocity/set timestep
#

fix		1 graphite setforce 0.0 0.0 0.0
velocity 	graphite set 0.0 0.0 0.0
velocity            water create ${START_TEMP} ${SEED} rot yes dist gaussian
velocity            water create 240 ${SEED} rot yes dist gaussian
velocity            water create 240 20028 rot yes dist gaussian
timestep            5.0

# Define output
#
compute 1 water msd
compute 2 water temp


thermo	            100
thermo_style custom step c_2 press vol etotal ke pe c_1[4] density

# Neighbor lists
#
neigh_modify        delay 0 every 1 check yes


# Set fixes
#
fix                 2 water momentum 10 linear 1 1 1 rescale
fix                 3 all nve
fix                 4 water temp/csvr ${START_TEMP} ${START_TEMP} 500.0 928347
fix                 4 water temp/csvr 240 ${START_TEMP} 500.0 928347
fix                 4 water temp/csvr 240 240 500.0 928347

# Run 0.05 ns equilibration
#
dump                1 all custom 100 ${DIR}/eq.${NAME}.dump id type x y z vx vy vz
dump                1 all custom 100 run_17/eq.${NAME}.dump id type x y z vx vy vz
dump                1 all custom 100 run_17/eq.ibeam_cooling_17.dump id type x y z vx vy vz
run                 10000
Neighbor list info ...
  update every 1 steps, delay 0 steps, check yes
  max neighbors/atom: 2000, page size: 100000
  master list distance cutoff = 6.67472
  ghost atom cutoff = 6.67472
  binsize = 3.33736, bins = 48 11 12
  1 neighbor lists, perpetual/occasional/extra = 1 0 0
  (1) pair sw, perpetual
      attributes: full, newton on
      pair build: full/bin/atomonly
      stencil: full/bin/3d
      bin: standard
Per MPI rank memory allocation (min/avg/max) = 0.463 | 3.758 | 4.742 Mbytes
Step c_2 Press Volume TotEng KinEng PotEng c_1[4] Density 
       0          240   -163.35224    229018.04   -21211.582    1589.6064   -22801.188            0   0.87555383 
     100    240.88666   -294.84178    229018.04   -21189.837    1595.4791   -22785.316   0.88939733   0.87555383 
     200    236.92449   -406.48101    229018.04   -21221.219    1569.2362   -22790.455    1.2859346   0.87555383 
     300     239.4043   -386.28427    229018.04   -21198.398    1585.6608   -22784.059    1.6297292   0.87555383 
     400     233.6508    -134.8255    229018.04    -21206.73    1547.5534   -22754.283    2.0043469   0.87555383 
     500    235.02878   -218.89287    229018.04    -21201.91    1556.6802   -22758.591    2.3183565   0.87555383 
     600    233.34172   -331.75841    229018.04   -21305.498    1545.5062   -22851.004    2.6973761   0.87555383 
     700    233.55124   -279.59502    229018.04   -21266.525    1546.8939   -22813.419     3.007634   0.87555383 
     800    230.19997   -255.30775    229018.04   -21309.713    1524.6972    -22834.41    3.4514969   0.87555383 
     900    237.65393   -307.99231    229018.04   -21260.563    1574.0675   -22834.631    3.7263604   0.87555383 
    1000    248.86913   -226.47817    229018.04   -21207.728    1648.3498   -22856.078    3.8518481   0.87555383 
    1100    238.52462    -410.7879    229018.04   -21233.013    1579.8344   -22812.847    4.1109405   0.87555383 
    1200    241.32822   -256.67342    229018.04   -21256.949    1598.4037   -22855.353     4.369399   0.87555383 
    1300    236.24476   -93.145151    229018.04   -21218.105    1564.7341   -22782.839    4.7907464   0.87555383 
    1400     243.1709   -296.47877    229018.04   -21153.445    1610.6084   -22764.053     5.114089   0.87555383 
    1500    239.86892   -429.59717    229018.04   -21172.262    1588.7382   -22761.001    5.4478895   0.87555383 
    1600    243.43588   -515.53103    229018.04   -21160.118    1612.3634   -22772.482    5.7027348   0.87555383 
    1700    236.87583   -408.09572    229018.04   -21185.948    1568.9139   -22754.862    6.0420173   0.87555383 
    1800    243.72664   -243.75078    229018.04   -21190.181    1614.2893   -22804.471    6.4634228   0.87555383 
    1900    248.46625   -207.08466    229018.04   -21109.283    1645.6814   -22754.965    6.9270895   0.87555383 
    2000    247.34718   -131.91488    229018.04   -21088.516    1638.2694   -22726.785    7.5840779   0.87555383 
    2100     245.1345   -86.362084    229018.04   -21112.377     1623.614   -22735.991    8.0219627   0.87555383 
    2200     244.7892   -267.14096    229018.04    -21110.58     1621.327   -22731.907    8.4816363   0.87555383 
    2300     241.5937   -345.62316    229018.04     -21160.3     1600.162   -22760.462    8.8143363   0.87555383 
    2400    240.42267   -466.01598    229018.04   -21149.228    1592.4059   -22741.634    9.0388169   0.87555383 
    2500    246.23795   -338.76626    229018.04   -21130.159    1630.9225   -22761.081    9.3995066   0.87555383 
    2600    237.94247   -307.34219    229018.04   -21172.335    1575.9786   -22748.313    9.7641033   0.87555383 
    2700    240.11281   -214.17809    229018.04   -21141.513    1590.3535   -22731.866    10.072985   0.87555383 
    2800    241.57196   -181.39926    229018.04    -21153.54    1600.0181   -22753.558    10.414936   0.87555383 
    2900    239.38387   -244.35254    229018.04   -21232.546    1585.5255   -22818.071    10.887551   0.87555383 
    3000     235.8382   -247.28473    229018.04   -21254.697    1562.0413   -22816.739    11.361762   0.87555383 
    3100    239.38776   -412.88273    229018.04   -21253.791    1585.5513   -22839.343    11.773675   0.87555383 
    3200    236.86713   -220.68628    229018.04   -21278.322    1568.8562   -22847.179     12.15202   0.87555383 
    3300    235.44439   -348.82401    229018.04   -21237.555    1559.4329   -22796.988      12.4564   0.87555383 
    3400     240.6724   -285.35562    229018.04   -21237.767    1594.0599   -22831.827    12.723606   0.87555383 
    3500    238.84278   -293.48083    229018.04    -21247.68    1581.9417   -22829.622    13.216044   0.87555383 
    3600    237.73839   -175.63257    229018.04   -21222.094     1574.627   -22796.721     13.38801   0.87555383 
    3700    239.14954   -372.97793    229018.04   -21242.036    1583.9734    -22826.01    13.597353   0.87555383 
    3800    233.79203   -343.81347    229018.04   -21238.086    1548.4888   -22786.574    13.792435   0.87555383 
    3900    238.51446   -282.17874    229018.04   -21223.507    1579.7671   -22803.274    14.140357   0.87555383 
    4000    236.69798     -304.306    229018.04   -21257.564    1567.7359     -22825.3    14.782521   0.87555383 
    4100    237.52544   -7.1509771    229018.04    -21208.89    1573.2165   -22782.107    15.359962   0.87555383 
    4200    239.39819    -189.6155    229018.04    -21177.65    1585.6204   -22763.271      15.9239   0.87555383 
    4300    247.30713   -256.71296    229018.04   -21072.309    1638.0042   -22710.313    16.294202   0.87555383 
    4400    240.23806   -470.30025    229018.04   -21071.596    1591.1831   -22662.779    16.682411   0.87555383 
    4500     246.3758    -310.2578    229018.04     -21126.1    1631.8356   -22757.936    16.765656   0.87555383 
    4600    241.22093   -362.22267    229018.04   -21165.273     1597.693   -22762.966    17.150125   0.87555383 
    4700     238.3697   -449.25868    229018.04   -21193.861    1578.8083   -22772.669    17.424521   0.87555383 
    4800    246.93506   -245.69947    229018.04   -21169.859    1635.5398   -22805.398    17.541836   0.87555383 
    4900    238.53047   -307.42887    229018.04   -21192.198    1579.8731   -22772.071    17.797665   0.87555383 
    5000    238.06893   -297.62831    229018.04   -21213.175    1576.8162   -22789.991    17.882695   0.87555383 
    5100    238.43593   -264.44843    229018.04   -21218.355     1579.247   -22797.602    18.394998   0.87555383 
    5200     237.2096    -205.6448    229018.04    -21192.26    1571.1246   -22763.384    18.697524   0.87555383 
    5300     236.9979   -205.42318    229018.04   -21253.107    1569.7224    -22822.83    19.037011   0.87555383 
    5400    235.31665   -212.24703    229018.04   -21213.529    1558.5869   -22772.116    19.101885   0.87555383 
    5500     237.3257   -294.21144    229018.04   -21238.694    1571.8935   -22810.588    19.298671   0.87555383 
    5600    236.48876   -416.29881    229018.04   -21246.563    1566.3502   -22812.913    19.665722   0.87555383 
    5700    237.48029   -249.21482    229018.04   -21218.008    1572.9174   -22790.926    19.871021   0.87555383 
    5800    242.51224   -299.15662    229018.04   -21136.932    1606.2459   -22743.178    20.223848   0.87555383 
    5900    242.06234   -118.56825    229018.04   -21172.177     1603.266   -22775.443    20.618413   0.87555383 
    6000    234.24074   -406.73091    229018.04   -21261.969    1551.4607   -22813.429    20.824974   0.87555383 
    6100    233.23131   -430.42949    229018.04   -21228.644    1544.7749   -22773.419    21.208543   0.87555383 
    6200    238.46871    -366.4831    229018.04   -21190.673    1579.4641   -22770.137    21.461576   0.87555383 
    6300    241.51421   -296.46513    229018.04   -21147.854    1599.6355   -22747.489    21.378114   0.87555383 
    6400    246.45165   -143.28547    229018.04   -21152.528     1632.338   -22784.866    21.592155   0.87555383 
    6500    240.16435   -204.13825    229018.04   -21179.663    1590.6949   -22770.357    22.025374   0.87555383 
    6600    240.85196   -150.92226    229018.04   -21220.682    1595.2492   -22815.931     22.75934   0.87555383 
    6700    228.58493   -421.96191    229018.04   -21265.676    1514.0003   -22779.677     23.26341   0.87555383 
    6800    238.51419   -338.74148    229018.04   -21212.468    1579.7653   -22792.233    23.651928   0.87555383 
    6900    232.48572   -395.62982    229018.04   -21239.817    1539.8366   -22779.654    24.075364   0.87555383 
    7000    235.41147   -306.92009    229018.04   -21244.658    1559.2149   -22803.872    24.193319   0.87555383 
    7100    238.38197   -193.64562    229018.04   -21158.215    1578.8896   -22737.104    24.249085   0.87555383 
    7200    242.93732   -302.36523    229018.04   -21168.456    1609.0613   -22777.517    24.783822   0.87555383 
    7300    237.37094   -239.97431    229018.04   -21251.954    1572.1932   -22824.148    25.217289   0.87555383 
    7400    234.58098   -242.72062    229018.04   -21248.243    1553.7143   -22801.957    25.788107   0.87555383 
    7500    230.11312   -158.49876    229018.04   -21278.523     1524.122   -22802.645    26.321349   0.87555383 
    7600    232.36725   -302.26775    229018.04    -21279.05    1539.0519   -22818.102     26.77975   0.87555383 
    7700    236.92333    -328.5754    229018.04   -21229.587    1569.2285   -22798.816    27.145475   0.87555383 
    7800    237.89875   -288.77454    229018.04    -21191.48     1575.689   -22767.169    27.549773   0.87555383 
    7900    240.68183   -308.93699    229018.04   -21172.561    1594.1224   -22766.683    27.614272   0.87555383 
    8000    242.17529   -298.97856    229018.04   -21170.665    1604.0141   -22774.679    27.470655   0.87555383 
    8100    240.94882   -233.01198    229018.04    -21219.78    1595.8907   -22815.671    27.727763   0.87555383 
    8200    247.10734   -331.82239    229018.04   -21261.062    1636.6809   -22897.743    28.258397   0.87555383 
    8300    241.23997    -213.8057    229018.04   -21274.185    1597.8191   -22872.005    28.425452   0.87555383 
    8400    239.43562   -305.71119    229018.04   -21282.272    1585.8683    -22868.14    28.600823   0.87555383 
    8500     241.9623   -365.94596    229018.04   -21290.499    1602.6034   -22893.102    28.755955   0.87555383 
    8600    237.60968   -364.54126    229018.04   -21237.562    1573.7745   -22811.337    28.745126   0.87555383 
    8700    236.71294   -245.29806    229018.04   -21311.198     1567.835   -22879.033    28.891224   0.87555383 
    8800    241.72843   -147.43723    229018.04    -21236.96    1601.0544   -22838.014    29.135534   0.87555383 
    8900    232.65757   -213.85861    229018.04   -21259.311    1540.9748   -22800.286    29.615088   0.87555383 
    9000    239.71916   -309.30301    229018.04   -21200.833    1587.7463   -22788.579    30.190987   0.87555383 
    9100    233.37383   -273.72765    229018.04   -21181.405    1545.7189   -22727.124    30.761894   0.87555383 
    9200    234.47721   -143.71204    229018.04   -21211.229     1553.027   -22764.256    31.183754   0.87555383 
    9300    235.94101    -240.4078    229018.04   -21217.052    1562.7222   -22779.774    31.598848   0.87555383 
    9400    231.82476   -372.55489    229018.04   -21250.546    1535.4589   -22786.005    31.898574   0.87555383 
    9500    234.73994   -331.61377    229018.04   -21191.336    1554.7671   -22746.103    32.224088   0.87555383 
    9600    240.94962   -373.30822    229018.04   -21244.808     1595.896   -22840.704    32.803024   0.87555383 
    9700    240.45407   -218.69663    229018.04   -21189.704    1592.6138   -22782.318    33.218491   0.87555383 
    9800    241.43839   -130.57342    229018.04   -21204.742    1599.1333   -22803.876     33.72316   0.87555383 
    9900    244.88447    -127.0698    229018.04    -21166.72     1621.958   -22788.678    34.172957   0.87555383 
   10000    242.67436   -264.45667    229018.04   -21086.647    1607.3196   -22693.967      34.6524   0.87555383 
Loop time of 14.9386 on 160 procs for 10000 steps with 8943 atoms

Performance: 289.183 ns/day, 0.083 hours/ns, 669.406 timesteps/s
97.8% CPU use with 160 MPI tasks x no OpenMP threads

MPI task timing breakdown:
Section |  min time  |  avg time  |  max time  |%varavg| %total
---------------------------------------------------------------
Pair    | 0.00047827 | 3.0823     | 12.549     | 238.4 | 20.63
Neigh   | 0.00035644 | 0.10232    | 0.39406    |  39.5 |  0.68
Comm    | 0.014084   | 4.1231     | 12.167     | 217.2 | 27.60
Output  | 0.17436    | 0.17454    | 0.18133    |   0.1 |  1.17
Modify  | 0.32874    | 7.3025     | 14.595     | 227.2 | 48.88
Other   |            | 0.1538     |            |       |  1.03

Nlocal:    55.8937 ave 177 max 0 min
Histogram: 72 5 41 2 0 0 0 0 4 36
Nghost:    541.194 ave 964 max 0 min
Histogram: 24 0 0 8 5 52 21 18 22 10
Neighs:    0 ave 0 max 0 min
Histogram: 160 0 0 0 0 0 0 0 0 0
FullNghs:  5635.93 ave 22171 max 0 min
Histogram: 89 31 0 0 0 0 0 2 19 19

Total # of neighbors = 901748
Ave neighs/atom = 100.833
Neighbor list builds = 576
Dangerous builds = 0
write_data 	    ${DIR}/data.${NAME}_eq
write_data 	    run_17/data.${NAME}_eq
write_data 	    run_17/data.ibeam_cooling_17_eq

undump              1
unfix               4



################################################
#######         Run Simulation         #########
################################################

reset_timestep      0
timestep	    10.0
log                 ${DIR}/log.run_${NAME}
log                 run_17/log.run_${NAME}
log                 run_17/log.run_ibeam_cooling_17
