LAMMPS data file via write_data, version 29 Oct 2020, timestep = 60695

1440 atoms
1 atom types

0.0 157.504 xlo xhi
0.0 42.92415076688989 ylo yhi
1.2063394765209985 16.79366052347899 zlo zhi

Masses

1 18.015

Atoms # atomic

6 1 47.34824210859773 4.456146851443049 4.900521320432677 0 0 1
38 1 49.731736007688426 5.00536104701858 3.2390978971749513 0 1 1
143 1 52.033473323970455 6.32953316880376 2.646511968466756 0 0 1
36 1 45.8429430927838 8.932975461477076 3.334658613689108 0 0 2
37 1 47.75971154003017 6.938449220695633 2.29826102586044 0 1 -1
19 1 46.128383147475255 9.279623501404455 15.828536105843865 0 1 0
27 1 48.299346623358325 9.758564592654606 4.341133680854066 0 1 0
52 1 50.13957198578004 8.788107093321264 1.9087369418759883 0 0 0
62 1 44.39634782342316 12.10473349805668 3.5491679815629675 0 1 0
383 1 46.897211637900725 11.992365349895133 5.307637941383267 0 0 2
57 1 52.010249380082016 19.92896639508736 13.701252895562614 0 0 1
31 1 46.3633549616043 12.508200092356384 1.4791497612662141 0 0 1
17 1 49.29568228446675 13.394626752141367 4.174297110904292 0 0 0
35 1 48.84369378926981 18.239818498886528 4.020055610142363 0 1 0
121 1 50.897383830199416 0.6974497822036825 11.909860646216025 0 1 0
71 1 47.49658772106957 1.4888159608339597 8.57988636522422 0 1 0
18 1 49.141941865996316 5.377268427051073 6.87132420829979 0 0 1
110 1 47.12642151297884 1.6142380581664972 5.7942967105691 0 1 0
15 1 45.839883699688066 6.936173350071978 5.530013410196073 0 0 3
152 1 48.381983431621684 8.274402959270509 6.508077681481987 0 1 0
161 1 51.96833952009427 2.7518723791865454 8.525939190049533 0 0 1
123 1 50.90214302386596 0.8963150449456723 3.3321579992137793 0 1 1
69 1 44.316345778564205 10.49812464097642 7.753160104114806 0 0 0
13 1 50.99966016456092 9.0950703913057 7.458731325632384 0 1 0
89 1 50.31737751752407 1.4023832331160668 6.068282338685384 0 1 0
34 1 43.775220036795446 9.774543181683697 5.0036237305564555 0 1 0
226 1 48.25499079821994 12.461990474976922 7.745985248821891 0 0 1
66 1 49.65225447388131 13.074068643213621 1.20634112281568 0 0 1
33 1 49.679288809888206 15.869544548875114 5.18183288772225 0 0 1
29 1 48.965976992523764 15.328213959256024 7.801403040351988 0 0 1
227 1 52.445111694938355 13.194619799425983 15.962213798801749 0 1 -1
32 1 50.62105641939701 19.732434756759584 5.484622959925074 0 0 0
20 1 45.49406153361195 3.111120051100158 9.66807611782222 0 1 1
614 1 49.55912866422412 2.8546328241531578 9.875437480107463 0 1 1
21 1 45.88204232594977 5.8207480384415975 10.212693517109825 0 0 0
620 1 48.725871819340576 5.342365084183547 9.67435227991966 0 0 1
114 1 51.541599512376656 5.450519172534416 5.7223756248744415 0 1 2
65 1 45.11915325085701 7.609014803116233 8.062524124371189 0 0 1
48 1 44.27611907525462 11.781189651321627 10.511683204844351 0 0 -1
425 1 47.26957538740111 9.64900873868354 8.466065962972573 0 0 1
207 1 50.49724442579145 7.8773719071211925 9.946207922628577 0 1 -1
51 1 46.68890512865628 13.418637719736218 9.80615828969877 0 0 0
167 1 50.785221886962006 13.396691823827645 9.272775853274402 0 0 1
220 1 50.87413497325958 11.74116026206106 11.95098676200051 0 0 0
46 1 46.92555177431378 16.24464063440932 9.408068759049229 0 0 0
290 1 50.899902945613135 15.91458693737374 10.358505374464645 0 0 0
106 1 50.1510723612443 2.905055117087874 1.4754335114568329 0 1 2
60 1 48.618436134885066 17.3580862029643 11.151044718602941 0 0 1
5 1 49.983134325200524 18.18591839368682 1.6395667319147882 0 0 1
296 1 52.16714174126377 11.701888887356136 7.6011665495764325 0 1 1
393 1 51.48206804248534 19.929256545288492 8.22593843428262 0 0 0
53 1 45.53895628686188 3.4968659469584784 14.436074187081548 0 1 1
2 1 45.072735063394745 1.8758808768898618 12.268898052981564 0 1 0
55 1 49.56984822191989 3.348857585832579 12.877208681311462 0 1 0
14 1 49.02877349346604 9.653886275597804 12.958899809288871 0 1 0
151 1 51.028135661465555 5.929616606537282 12.109290074857213 0 0 1
64 1 45.46857321311035 9.715593518280626 12.110656381180837 0 1 0
366 1 47.687366834365136 8.367724888361252 10.805423811276729 0 0 1
365 1 49.58725906387582 7.333401608846479 13.87660657950319 0 0 0
67 1 43.315763362120755 13.732204843652388 12.44172594595885 0 0 0
68 1 48.450710369385654 13.291148572809261 11.917456866093602 0 1 1
291 1 45.39656093445267 16.05914076250902 14.251706233652907 0 0 1
225 1 51.662106364682835 8.260090726516463 15.211396187937746 0 1 0
45 1 44.80920636954958 16.017860206477938 11.438259456969364 0 0 1
43 1 47.827669946577764 15.78334770407637 13.20607409949424 0 0 -1
180 1 51.2934873342572 15.918940584648388 13.446265401136724 0 0 0
280 1 52.18777234653193 10.697959289830955 3.37186354776401 0 1 1
126 1 49.47771051071782 19.96019853470612 12.159706409923166 0 0 0
44 1 47.855775738547166 21.101341817973346 14.24164886650855 0 0 0
9 1 50.15138251366734 20.5881455156012 16.031949588321787 0 0 0
81 1 48.221823033967546 2.4287025963332938 15.243664370297028 0 1 0
11 1 49.707028420567234 15.829669874427463 15.610588494386857 0 0 1
199 1 45.261869931384624 5.814531601486641 13.184628270976798 0 1 1
59 1 44.25593500550622 8.37536928133043 14.012316690612582 0 1 0
281 1 46.6981989500129 11.818114996680604 13.351487751683017 0 0 1
266 1 47.35642486538033 6.71701698113867 15.14321993456137 0 0 0
54 1 44.84699153072782 13.313016491209085 14.561996101313655 0 1 1
375 1 48.53075547730075 10.564842923518588 15.711818658917384 0 0 0
30 1 51.95445654233562 2.7215434266883562 14.798795876608185 0 0 0
343 1 51.684336881343704 12.944430803261268 5.091371559935133 0 0 2
16 1 52.48716514108366 13.509972354520876 13.577422941382308 0 0 0
39 1 49.976253957887174 22.420456659464627 2.451170642252292 0 0 1
562 1 49.46266380935431 27.691174008606215 4.606081501735446 0 0 1
70 1 52.13705886502919 26.555204341849272 5.002203192842723 0 0 2
102 1 50.1983870297955 30.216550825959086 4.265436044322148 0 0 1
98 1 50.48849810961351 34.744818648365424 2.4695628377391747 0 0 1
128 1 51.73595071987175 36.66158776397074 14.964148874586169 0 0 0
96 1 49.48792773850487 40.29789488564203 2.2279510253345327 0 0 0
134 1 49.73819096184594 34.49428720878683 14.727549089444693 0 0 0
82 1 51.250288200917986 34.69326009416703 7.6131244662676565 0 0 1
88 1 51.52966438750866 24.160904010068563 6.403121867335533 0 0 1
91 1 48.063311947639825 39.73725242882495 15.473957904671515 0 0 0
97 1 49.72405938107864 24.9874517595585 8.294025801424635 0 0 0
87 1 51.336066220654665 30.199604745321327 6.661457326867931 0 0 1
103 1 48.92887169387336 32.37961771750976 5.951878264383249 0 0 1
94 1 49.81632753385956 34.971954528828434 5.242963195583438 0 0 0
78 1 51.04713318732268 37.51155463034435 5.086405682440696 0 0 1
493 1 52.37613204459832 37.447441882436145 7.795847162649657 0 0 0
76 1 48.96157629844343 39.55044089782459 4.947720592343392 0 0 0
129 1 48.10288946603589 42.63638513577484 3.7483241599305877 0 0 1
198 1 49.67567664807811 22.32091818953601 5.266684900309521 0 0 1
204 1 48.99737206743495 41.70180808051527 6.827965004131923 0 0 1
314 1 52.14858043854698 42.10038927392572 1.4507141940262949 0 0 1
4 1 51.047966793168946 23.96214933579097 10.475790979403795 0 0 2
49 1 49.90536652458859 27.936634291221022 8.355545596806458 0 0 1
687 1 47.94798615684218 29.232067812959816 10.082742438380347 0 0 1
99 1 48.96172705567837 31.5709279667247 8.624010618098497 0 0 1
3 1 49.43906491047568 34.15524549525359 9.690432317580887 0 0 0
108 1 46.24654377760249 42.336078291131834 12.555576693349 0 0 0
22 1 50.22374798307657 28.108876778099884 14.459576309327572 0 0 0
648 1 51.64524100839087 40.24014929574571 7.376553870147712 0 0 0
130 1 47.4301716110071 41.711819790777376 9.558615968209216 0 -1 0
137 1 50.13201603730987 41.42779361078572 10.871645008263267 0 0 1
499 1 50.563071466218254 42.40795094129333 14.506159804942476 0 0 1
104 1 48.32102861961065 24.05394252608329 14.006866407750545 0 0 0
61 1 50.45792533157864 25.200598920487597 12.756095317202444 0 0 1
141 1 51.29664506318592 27.463454491725166 10.824081556026972 0 0 0
86 1 50.05770634987317 29.472600861968726 11.982026699996988 0 0 2
74 1 51.295578756927796 31.72584110392537 10.755470588611145 0 0 2
401 1 48.164509435245265 22.697311074867613 7.962515925705774 0 0 1
713 1 50.29779592949262 32.0122476550606 1.7281792079343279 0 0 1
93 1 51.99179775554713 33.25004769581928 13.118698562290671 0 0 0
107 1 48.87227140917898 37.28422288206237 13.612687626988485 0 0 0
118 1 50.69526176085673 35.66796708594392 11.753807200413528 0 0 0
113 1 50.069384162968205 39.916176626627774 13.375432830805897 0 0 1
119 1 50.76554380056873 31.180005178961096 14.81855154538606 0 0 1
139 1 51.02651574885709 37.961506560816105 2.045484796397669 0 0 1
131 1 47.44395394059291 42.55382335807391 14.90918541647343 0 0 1
105 1 48.75764522177699 24.61227960934198 16.500846511011414 0 0 -1
56 1 52.45948867842178 25.420250499336497 14.77674365182884 0 0 0
125 1 50.18748832261196 27.148489753915282 1.5503801477069934 0 0 2
79 1 52.453620169746 32.14733950286308 8.066167650315492 0 0 0
109 1 52.32640978314128 40.320322411595484 10.12774284418207 0 0 0
42 1 49.87771954988794 21.531414960630826 9.77661511338057 0 0 0
595 1 55.983496015599336 3.7342124306489834 1.8656609072113004 0 1 1
219 1 54.02387716925872 15.569337503510976 1.423384594352921 0 1 1
549 1 61.33946825919687 3.3703678483432755 1.9118121487699506 0 1 1
147 1 65.90291540165387 3.5469921060864227 3.0942536752695906 0 1 0
488 1 63.589912937663634 0.49743384621415593 4.072641196350669 0 0 0
176 1 54.51536440122067 16.484264071548846 7.4090556893390795 0 0 1
336 1 56.65444767763849 9.189152656824472 3.422678480430884 0 0 0
175 1 52.70860880392622 18.02140999704635 1.7795959837063295 0 0 1
231 1 62.4677487871384 9.133202871328777 2.5429084669993722 0 0 0
490 1 61.82694134602619 6.470426181870896 1.7165559796907461 0 1 0
269 1 64.43696953040252 5.131558107322182 1.4063607767670554 0 1 2
391 1 68.33493715706688 2.9125790255076662 1.8965999505111553 0 0 1
148 1 70.71058619600166 3.0300998505218013 3.4782376153481596 0 1 1
213 1 71.59697820513851 5.849625782259835 15.772333563259785 0 0 -1
156 1 72.93122042941569 4.088311975102891 2.0096111741556837 0 1 1
159 1 53.552569345434044 1.3014918535971818 12.501680903650533 0 0 2
8 1 52.92976957464979 18.63833390823659 4.335651944935595 0 0 1
395 1 53.993987095308064 9.991451478651433 5.488480911731506 0 0 0
368 1 59.20651720904651 8.768324893364845 2.6320282547864187 0 0 1
387 1 65.22586088417276 9.028334710413386 3.1921698936246754 0 1 0
155 1 66.4323529742797 7.206919031331357 1.2606589349847541 0 1 0
214 1 68.68974275448136 4.933334830132705 15.371317944131901 0 0 -1
158 1 74.67177776909051 5.936473583958032 2.818024515994805 0 0 0
172 1 75.98063265021463 7.1321014315049425 16.423232665980944 0 1 0
323 1 54.39995377619654 7.018009109910581 3.845239395278407 0 0 0
229 1 58.392263424737436 11.910258524502636 3.317531550097253 0 0 2
376 1 61.03716679503817 10.666874805428085 4.476155020914419 0 0 1
295 1 62.671918900214365 13.081424703411916 3.9451839222896905 0 1 1
389 1 66.29587653356731 11.981104177723799 1.5791590980408998 0 1 1
332 1 68.58179090460236 9.936411780254886 15.11672513427518 0 0 -1
272 1 70.75926119565949 9.970286562006311 16.651579781767367 0 1 -2
164 1 72.77243120738947 8.37878523701377 16.043092065113928 0 0 -1
173 1 74.84407924478167 11.672406912255017 16.278385161947064 0 1 0
338 1 77.65050750941919 10.362847614750665 14.17413482801701 0 0 0
246 1 54.87075754698526 14.45319047756979 3.7409708619177007 0 0 1
294 1 58.91914692522073 14.791189316001134 4.6356188026844185 0 0 0
284 1 63.84161525254025 12.720677797905843 1.5292639032888022 0 0 0
406 1 67.90972286784397 12.989038452498994 15.100979286269894 0 0 0
195 1 68.82299911354428 13.107368177108658 4.0769311684546 0 0 0
265 1 72.08754875129064 12.28034790093357 1.3581026160329834 0 0 0
409 1 73.361082009746 13.967541735335175 3.1352708681155987 0 1 1
179 1 77.66949136061692 13.02791541828625 1.5871821252104115 0 0 0
293 1 56.7811405108708 16.254988081870057 3.3430685528409603 0 0 1
415 1 60.71003273564715 19.357809363974777 2.213304649696903 0 0 0
230 1 61.01720396839617 16.4632337220772 2.942457761339148 0 0 1
196 1 63.487107404450406 16.97339279750688 5.572098760568313 0 0 -1
168 1 63.873735294440415 17.025264878686748 2.865130964605873 0 0 1
186 1 66.71207449817157 16.688753796341064 3.3894646936134976 0 0 0
475 1 71.06217598715247 15.74078732537337 3.7370534521478733 0 0 -1
197 1 73.68470600262019 17.01000340917033 2.171369467579057 0 1 -1
1004 1 75.0413914756493 21.087738955402386 12.069141998003689 0 0 0
672 1 77.03892914890895 4.100361152488648 11.311814505245023 0 1 0
351 1 58.49339146708959 20.48407596490365 1.576668226214066 0 0 0
536 1 60.200553041630016 3.7906002583423892 4.205467618649749 0 1 0
360 1 64.71135784530505 19.7127225351227 2.114226821421978 0 0 0
347 1 67.89458790830749 18.901919338256285 4.4423437181073915 0 0 0
352 1 67.39205511623737 20.258789733972943 2.078468309444556 0 0 0
120 1 54.34283595702876 0.8753606216338308 2.7946190114580696 0 1 1
145 1 73.41710423381625 20.839224527755583 14.400578178324894 0 0 -1
686 1 76.92552070506 18.78122999993142 4.991338882790687 0 0 0
631 1 68.71636775855332 18.79619015547216 15.781851227702377 0 0 -1
715 1 53.75024389669255 3.9318167769320884 6.3947863394322315 0 0 1
566 1 55.85157739116037 4.470467719907335 4.543681818968364 0 0 0
548 1 60.38829790590611 6.496726156587143 4.112223066099082 0 1 -1
716 1 62.10891660249203 2.7436233376699413 5.823223253277957 0 1 0
203 1 65.43248767351231 2.477564312678506 5.794170254546734 0 1 0
500 1 64.0990016592952 4.79432623813373 6.977596509598909 0 1 1
149 1 71.09910687268798 0.46612073053675296 3.732159765627516 0 1 0
274 1 52.983815261736595 10.401802650546813 10.471134533466609 0 0 0
608 1 74.92813469185795 1.050903283502476 2.619346110963549 0 0 -1
144 1 55.077713975163704 5.616537153975312 8.604171797631546 0 0 0
367 1 57.74947955818067 6.538078012689759 4.799212649099104 0 1 0
489 1 62.01818175242597 6.906479638123355 6.454959123482555 0 1 0
210 1 64.73682249030611 7.547174972490375 5.307479700733925 0 1 0
261 1 66.72402270752195 5.492840233129192 5.063696925866943 0 1 0
264 1 71.06396846819935 5.147676007755251 5.269733743375032 0 1 0
205 1 78.05305329544836 4.317289460994796 5.382987975824161 0 1 0
217 1 75.74819528172127 5.619754955016994 5.463227917227988 0 1 0
228 1 58.220292938793314 9.709803006399678 7.670538073448747 0 0 2
478 1 61.12739851965755 9.509143117390426 7.1368752366300185 0 1 0
223 1 65.26057683481332 9.421635391621297 7.305208017920626 0 0 1
379 1 68.32935601675076 6.168746885277492 2.9662353723200643 0 1 1
165 1 69.67600321854258 8.511249132872962 3.256696027732768 0 1 1
218 1 71.39882117464354 7.947852898179503 5.1322847124093505 0 1 0
426 1 73.40870608065336 8.419334300179532 3.27577358458233 0 0 -1
412 1 54.16708006563704 13.76317809337521 9.345215168735772 0 0 1
162 1 56.50163199924 11.065816611908811 5.934472849984223 0 0 0
388 1 58.56198665710931 12.624018898254755 8.551543021754151 0 1 -1
397 1 67.00329356667527 11.170393213294599 6.270297014751803 0 0 1
255 1 67.63984975739 10.422979617642289 3.737845808781102 0 0 -1
170 1 73.64979008806586 12.073596437510139 5.3899872684967995 0 0 0
166 1 74.96612690778225 10.730803616747757 3.2864970632055197 0 0 1
345 1 54.78404926819265 13.256816323266753 6.8165900362839436 0 0 1
404 1 56.97023181302596 17.715204690388124 8.148295170311908 0 1 -1
390 1 57.48993164453231 14.725101666181288 7.064927094582274 0 0 -1
399 1 61.81929794640096 14.99953876437084 5.8391973694094546 0 1 0
182 1 59.742101449854665 17.015728260995644 6.943400359732285 0 0 0
405 1 65.9352313301852 15.888668996532804 6.243095101510191 0 0 0
232 1 66.24216412820621 13.75277026269264 3.840921367110646 0 0 0
435 1 72.34735215302173 14.088500740830858 6.821131831661046 0 0 -1
413 1 56.6231685075452 20.687057166177574 6.890620834835087 0 0 2
414 1 55.72066725361099 18.278322899594905 5.013253879052346 0 0 0
455 1 71.3740825517327 18.266957881080003 15.223948341831806 0 0 -1
402 1 59.61263504505566 19.431180564461517 5.559868443443757 0 0 0
403 1 62.24104974539417 19.104341686983222 6.413773073328803 0 0 0
671 1 70.35622084283332 18.3566979968206 5.4462382317323765 0 0 -1
437 1 77.57955748265199 14.550945700316134 6.7781655748579945 0 0 1
759 1 76.03825281259483 16.324118605033007 5.235555249174487 0 0 0
190 1 56.97914713190812 20.72657649184439 3.87006143832658 0 0 0
58 1 54.32442119588077 0.9666338144457881 5.952949340635471 0 1 1
90 1 53.011274988134005 4.225395792752561 16.78131930358797 0 1 0
193 1 59.09197877092432 19.948325281677164 8.326253994194271 0 0 0
47 1 52.65075398079467 17.623371011947516 9.15839151447227 0 0 0
605 1 66.08896502800114 20.705499716069916 6.5527418323708195 0 0 0
485 1 72.37343825073822 18.980198266587372 3.522683861619158 0 0 1
497 1 61.452901983620556 21.299016916780644 9.608826548131223 0 0 0
309 1 61.90458149507858 19.877757835972407 15.297899972530239 0 0 -1
201 1 54.34551689195423 2.9696533276800965 10.33272690638127 0 1 1
378 1 56.93266078432767 3.010286025430711 10.066591273250491 0 0 1
335 1 60.278264685622844 2.9655967364557982 8.259134915670892 0 1 0
1002 1 74.82595809126835 20.324722217264227 4.288824909134707 0 0 0
260 1 65.9126699557231 1.2154375369563968 8.35493272582379 0 1 0
263 1 74.32753209067212 2.1350749842026233 5.396100085030549 0 1 0
829 1 75.94553005544714 0.7442992428338953 8.404229938347529 0 1 0
609 1 77.08781495455125 1.6537832688527094 5.917427570777267 0 1 0
539 1 53.637370367331236 5.4535272575027784 11.710034438268474 0 1 -1
221 1 57.70660732103529 6.42101109458851 7.678660942772222 0 1 0
273 1 60.41103450081037 5.683779286164536 8.47116058320878 0 1 1
268 1 62.234034462478654 6.455013594198108 10.605266539008444 0 1 0
212 1 64.3105616922702 4.97438068229166 9.919403545178476 0 0 -1
607 1 69.0877659850899 5.273339319083477 7.001251474180517 0 0 -1
279 1 73.4513446290063 4.378498175685419 6.252492857365019 0 1 1
278 1 76.90197594145843 7.125501709323817 7.834588446995373 0 0 0
486 1 53.37866776266233 7.848817105761969 9.880553049511619 0 1 0
547 1 56.09628779810167 7.820295879175019 11.621500096755877 0 1 -1
169 1 63.216013571714164 10.205747741636847 8.904300810728646 0 0 0
215 1 66.94221387036754 8.446247859175461 8.987180923605464 0 0 0
206 1 69.14005836392866 8.060569027678092 7.385852441283894 0 1 -1
287 1 73.09364708256791 4.801597168503117 8.816447044947862 0 0 0
242 1 73.79227149167505 8.417168917776078 8.462630677509194 0 0 1
171 1 75.14634699786622 8.454189207234066 5.744259041322282 0 0 -1
377 1 57.62387440299539 9.73038022939653 10.247373971614481 0 1 1
301 1 66.93408246283315 13.312944620810427 9.70805610574286 0 0 0
277 1 68.72837960842718 12.620566133990586 7.866038661172518 0 0 0
240 1 70.41879062424309 10.857064948005137 8.905220319148935 0 0 0
285 1 72.35918185068944 9.93238542976972 6.795185320770736 0 0 0
423 1 77.26429573490253 10.304510924506488 5.972009089677191 0 0 2
208 1 55.525420946517 11.797944500816705 10.55683207605197 0 0 0
396 1 61.02021068658305 13.815661617238069 8.540167259610694 0 0 0
256 1 64.72134996612266 13.232881211139338 6.166332907318286 0 0 0
184 1 69.77433080948984 14.30406723965635 6.39799962127625 0 0 0
408 1 71.695706055953 16.623538922616223 9.193374480774485 0 0 1
312 1 74.84496030756522 12.877062014184895 9.751889360294776 0 0 -2
306 1 75.764165658302 12.509135556742615 7.175624315083529 0 0 -1
579 1 76.71166378032581 0.9009218275733559 13.362250791459687 0 1 -1
386 1 56.99521754344456 18.250301876545223 10.815320872367456 0 0 0
178 1 57.866056726103714 13.669104443833278 10.96326269120939 0 0 0
163 1 67.197458686838 16.810859646096358 8.771389325370809 0 1 0
241 1 62.79573999055555 18.71381367126763 9.11858962738733 0 0 -1
354 1 69.62091278186917 16.648095765284477 7.356236664721488 0 0 -1
185 1 68.11806603070997 18.039330164676535 11.701791953332854 0 0 1
247 1 73.3272726933962 16.501225291238917 6.017432533373243 0 0 0
313 1 77.3558438999498 15.777362120536395 9.685001215987857 0 0 0
883 1 78.3854103247999 5.236543014946287 16.38671491426163 0 1 -1
433 1 60.80631405477786 16.718973639124773 9.571764807352524 0 0 0
342 1 65.98490133613011 19.340361484434574 9.08085064243914 0 0 0
563 1 70.19563168438926 20.49945964708694 7.8309838387005195 0 0 0
560 1 72.75935149893338 19.232566872153836 7.215521428890452 0 0 0
430 1 74.90059609330872 20.750631456859367 8.039217443547154 0 0 0
258 1 55.51952640076523 2.6911175989339613 13.924290456781213 0 0 -1
259 1 78.41878160940286 11.336181398752762 3.7336249815080835 0 0 -1
41 1 57.6093683305198 1.8879506873841951 12.471688863027895 0 0 -1
606 1 61.397674100483854 1.5371847525057867 10.50894050350717 0 1 0
321 1 60.51770106742832 2.6876828127532755 12.842485081476656 0 0 0
209 1 64.11319636162013 2.2653544528743246 10.219381062287871 0 0 0
660 1 65.26050618056378 2.143350512420777 12.604783765136277 0 1 0
662 1 68.45035367406999 0.8760484958014986 9.229422120556132 0 1 -1
267 1 52.89334050551008 10.168268731834969 13.431952552009701 0 1 0
382 1 73.11874972284065 0.6823676983609437 8.839518882219949 0 1 0
374 1 75.60154484368768 1.5676741008875885 11.138795034298456 0 0 0
384 1 58.0891515244898 5.6508830412928 10.658537327024268 0 1 -1
317 1 56.185135812352684 5.31274826870986 13.322446992353026 0 1 0
337 1 60.33834930605556 5.342562894124066 12.375757058058031 0 0 -1
325 1 68.79461394627992 5.304832450438301 11.09371501099071 0 0 -1
320 1 69.36904084893105 3.4324745756660016 9.163924134376503 0 1 -1
380 1 71.9754498177532 2.716311080587568 10.463345164650107 0 1 -1
951 1 75.47961815821009 5.806160148280577 9.652494651598372 0 1 -1
385 1 56.3713339841682 9.491589475589914 13.776001217438035 0 0 1
867 1 77.51549483321244 19.85559025075289 7.378297265849968 0 0 0
322 1 58.99443549796141 9.359047577562187 14.732968294974746 0 1 -1
153 1 62.60518279620132 8.962584607006841 11.323017153284578 0 1 0
211 1 64.85004067628492 10.375266444129553 12.595179220041302 0 1 1
271 1 66.2942608847976 6.491318830360393 10.716346774141922 0 0 0
333 1 71.36531332663128 7.169859235560996 9.340189790100323 0 0 0
381 1 70.73677337682766 6.884079342140691 12.207094704742826 0 1 -1
653 1 63.5481030389929 2.050854053829596 1.692659110925142 0 1 0
394 1 55.23788846590227 12.00793911607854 13.360295148057983 0 0 2
236 1 60.014746574952056 10.209105263431022 12.211570430946516 0 1 0
238 1 62.62758900968511 10.524346840633232 15.736486088702774 0 0 0
311 1 62.55566902313451 13.946729207986559 11.533454101537188 0 0 -1
275 1 66.833675767276 10.71852053838436 10.701112577996655 0 0 1
398 1 71.38766581933201 9.70040366191359 11.466960027606344 0 0 -2
339 1 73.48776864978046 10.989988341845452 12.972788336300338 0 0 0
224 1 74.61555706593934 10.167933971322299 10.38787989846935 0 0 0
340 1 77.36067285558654 8.777806511049386 10.372122993363533 0 1 0
192 1 56.43405651800593 13.767297436990784 15.18930265705766 0 0 -1
244 1 60.099456384184016 12.883258242968246 12.330097811339131 0 0 0
235 1 59.17186097058029 13.658001518276555 15.018954655065423 0 0 0
177 1 63.943121951796726 12.979444331285801 9.04652771408159 0 0 -1
239 1 63.46302746553354 16.531422517794436 12.81832361246955 0 0 -1
418 1 67.69126834022092 15.185593889228668 11.435061715413296 0 0 0
233 1 71.9319546672006 13.17088571443626 9.72100167111486 0 0 0
420 1 78.18657571437423 12.625415696890304 12.338760616827441 0 0 -1
353 1 76.00803760653723 14.067714646241068 11.563450584680885 0 0 1
174 1 53.651435680697894 17.807341918035874 13.693116513614074 0 1 1
252 1 57.21368581247552 15.834284998609036 12.254983689880783 0 0 1
251 1 59.93859732370487 16.62478632631959 12.597835749442286 0 0 1
253 1 64.67997725886795 18.89256483637209 11.748798283906892 0 0 0
428 1 64.34254267454789 18.53286038570345 15.287274361875578 0 0 0
559 1 66.7685579506888 19.44843601610537 13.712732159719305 0 0 -1
286 1 72.10107212418349 15.346454585461755 11.663806492090352 0 0 0
356 1 74.52508669418155 16.228246211390992 8.560288387319352 0 0 -1
363 1 76.47839962461181 18.597066667595396 12.98075865139601 0 0 -1
538 1 62.152549194248564 0.0914497462664765 7.109216982192885 0 1 0
243 1 57.484803784017615 20.439130880915684 12.99336420978604 0 0 0
496 1 62.85788018150886 21.046820541053076 12.067804639142622 0 0 0
315 1 68.1968214391555 20.48780659637364 10.107307566523822 0 0 -1
517 1 70.9786349161858 17.882562649315428 12.392742984083048 0 0 -1
678 1 71.87641216585199 19.553432587032564 10.308361291808326 0 0 -2
712 1 74.49877036031249 18.78575251601075 10.302926292714933 0 0 0
157 1 74.78014176979887 18.341692044342043 15.33892525097625 0 0 -1
63 1 55.777837231597246 0.8653705648703917 15.951219859435612 0 1 0
362 1 57.69034952601326 4.943443145411418 15.807091956373908 0 1 0
659 1 59.443394592763056 2.641480430128721 15.595374233135773 0 1 -1
316 1 62.6399736069657 1.9943101144779214 14.487609757671454 0 1 1
370 1 69.26367861221895 1.1137576670348546 13.975566871837586 0 1 0
680 1 71.98977453591318 0.6624556946770774 14.223717309944178 0 1 -1
372 1 74.27246680598488 2.6506913468986735 15.586487787214127 0 1 0
12 1 52.645196686633625 15.736016146616594 5.130810097980678 0 0 1
364 1 77.11521174409343 2.9143534073974195 15.328172780477496 0 1 -1
658 1 53.89689524625522 6.497061923889767 15.291273194037482 0 0 -1
276 1 60.049385576957846 6.737085702053307 14.807114126231642 0 0 1
615 1 64.53806186544578 4.5252716891123645 14.071171414648909 0 0 0
327 1 68.04647732877622 3.571281852347997 13.074465623149127 0 1 -1
328 1 73.57160967985233 2.8927079522595807 12.757102842242377 0 1 1
921 1 77.37674364352253 5.821203494616102 13.548742132246963 0 0 0
289 1 75.0107847854588 6.980866998523682 12.349377644263894 0 0 -1
331 1 55.63157582587215 8.682294574899535 16.240002705732177 0 0 0
222 1 62.79388804883576 8.265587164409173 14.186414804832859 0 0 0
330 1 65.45008599143802 7.071336180471006 13.327702214835208 0 0 0
318 1 64.19130274503324 12.755836595644723 13.588031927039488 0 1 -1
270 1 65.68598255216985 9.893706501330628 15.334493242004003 0 1 1
334 1 68.24040729201656 7.351383363520335 14.035655222166183 0 0 0
216 1 72.82862341424537 5.50800143454162 13.343532932831604 0 1 0
292 1 53.792944246895104 10.829654551355892 16.684362894975926 0 1 -1
329 1 55.90017176957414 12.381212975383617 2.1613706200541607 0 0 1
154 1 59.92526231745056 11.291914948833275 16.49417798194048 0 0 0
304 1 69.19065725317614 11.209639985488948 12.380399133561657 0 0 -1
410 1 75.17232344934762 9.179273154326875 14.369368084396493 0 0 0
142 1 53.33087266004074 7.617247402017165 6.791976807884127 0 0 1
283 1 63.281127470235596 15.245737319457115 16.12182371060337 0 0 -1
417 1 65.82146313817483 15.118387982135173 13.662420476518701 0 0 -1
303 1 69.54764145620008 13.955634988906672 13.093511441777189 0 0 -2
349 1 69.81577422499475 14.112076056634905 1.5538131799610384 0 0 -1
346 1 72.59197133976214 13.681711326183741 14.204091002362825 0 0 -1
543 1 68.06747668322238 0.3690322838355455 16.284955641802195 0 1 -1
23 1 55.915816584990665 16.64497465049648 14.952287387698288 0 0 1
282 1 60.53673393629496 16.12156944743645 15.519185169122157 0 0 0
302 1 58.033972462999614 17.141045509175274 16.654525760864388 0 0 0
300 1 60.453192506662326 19.471637649451065 12.932034957357008 0 0 0
183 1 67.77028981049271 16.030551710985012 16.208190379768894 0 0 -1
424 1 71.9123616263315 15.693787589683499 16.17041925244593 0 0 -1
618 1 74.57757367420226 16.217250332522433 12.887184696148852 0 0 -1
509 1 75.48825575540168 14.10193071198152 14.951275388464964 0 0 -1
234 1 77.42770479119037 17.308228944747434 16.345165051633344 0 0 -2
248 1 76.17190598248423 15.325936404906704 2.6814553066568747 0 0 0
411 1 53.98167908369183 20.317186824326743 16.257101308518603 0 0 0
344 1 56.567342297235804 19.760868558848387 15.486587772031601 0 0 0
400 1 77.3839174593625 9.519093711421407 1.4130472714666278 0 0 0
181 1 54.41723914026003 18.758370661933537 11.204959148721363 0 0 0
533 1 57.74597306061269 1.6644734267263066 7.677672255083466 0 1 1
477 1 57.90309163361173 2.287819147295786 4.536257745168992 0 1 1
839 1 78.09166118416573 2.9128658092519966 8.917617863783887 0 0 1
675 1 70.57128179003148 21.386773379279212 14.661537898460686 0 0 -1
361 1 70.87517470928574 20.61873813790873 1.9961377605559243 0 0 2
138 1 52.897669129008904 0.07242645668237542 8.32290760964766 0 1 1
341 1 78.45016456158231 8.306768756957977 12.764211999117142 0 0 0
24 1 54.434868222789916 21.276023696719058 3.60203726349251 0 0 2
427 1 77.49300917319425 1.0610376455150499 1.7933545657447674 0 1 0
1127 1 77.62447004629391 18.565563412075136 10.204086886070106 0 0 -1
422 1 62.62613187463498 21.262176341651056 3.133219909142134 0 0 0
324 1 58.590939721784125 0.4205811866211917 16.253964632492615 0 1 0
416 1 63.60994159777193 21.29557096026027 5.842067856366869 0 0 0
237 1 60.32265767044705 23.001204021003105 3.048837887527003 0 0 1
639 1 64.57351338390845 23.706005419190145 3.236060430848166 0 0 2
683 1 68.39542092876769 25.751597178674743 2.118452514558506 0 0 1
436 1 69.84596451293689 23.319827030266826 2.855997315337271 0 0 0
369 1 68.29977255889206 42.453401744407095 11.863658651061808 0 0 0
571 1 77.0068754562302 24.478771309165698 5.739027392414494 0 0 0
73 1 54.06973214645535 25.202407378841798 3.511494202895709 0 0 1
557 1 57.041875806561734 25.660780310229494 4.132637184777362 0 0 1
602 1 61.359228319320934 25.595033768331504 3.1425955046115472 0 0 0
307 1 62.26701116075456 25.059096050616024 5.641688248848111 0 0 2
613 1 63.97177718408143 26.019489375812014 1.8589016464247805 0 0 1
700 1 66.62972332612935 27.049597022591815 3.9704933912816127 0 0 1
685 1 72.48362278926234 24.121103171735932 4.39800793276665 0 -1 1
501 1 74.65268242043797 22.84565827930999 5.718148291396595 0 0 0
717 1 55.60050488433584 28.127529657333337 3.23168357274793 0 0 -1
582 1 56.90368699997042 29.103119215011787 16.31560911032277 0 0 1
682 1 59.03044572561019 31.32235732338582 2.8052800748868485 0 0 1