LAMMPS data file via write_data, version 29 Oct 2020, timestep = 50695

3482 atoms
1 atom types

0.0 157.504 xlo xhi
0.0 42.92415076688989 ylo yhi
1.2063394765209985 16.79366052347899 zlo zhi

Masses

1 18.015

Atoms # atomic

199 1 4.788214940940343 3.7318072834679517 2.8610655555000717 0 0 1
446 1 8.753074471912765 2.785702178367972 3.661608900494107 0 1 0
254 1 11.283751466010825 2.2564960913125045 2.5475173124413564 0 0 0
519 1 11.911227939039449 0.2418370959958194 15.79839953682604 0 1 0
92 1 16.109747912149206 1.2853806242601724 16.571210475603657 0 0 -1
514 1 22.67808244341065 1.7353296338829116 3.097484395884772 0 1 1
112 1 20.581114726647264 1.4559511137872614 1.5886002363354428 0 0 0
3195 1 1.0218114218945822 2.7997214902837446 1.340279510200885 1 0 1
3018 1 3.1314091407759177 4.248800217158256 15.73848793485462 1 0 0
3007 1 4.610504938811388 6.701651111977965 16.584505822182862 1 0 1
413 1 7.321413008050621 6.181462804227912 1.4291122834016114 0 0 1
497 1 7.182313064748872 3.6586313492601783 1.5884298042438654 0 1 1
224 1 15.49425434717689 5.829806970924501 3.8837888203876445 0 0 -1
613 1 17.5849925393774 3.9919082924548013 3.815548228077212 0 0 1
387 1 23.259293397750827 4.485312053185809 3.5308790176859883 0 1 0
2942 1 3.5661852849693108 6.744416542324995 3.7449591520340717 1 0 0
944 1 24.184582268237506 19.843679363554198 13.276686412908768 0 0 0
255 1 7.5270448161379875 7.414871610748123 3.654782744285196 0 0 0
140 1 12.303430739745025 6.708857256358912 3.7578362847247235 0 0 1
979 1 13.13335306757313 9.185144333941473 2.7253079953039605 0 0 0
89 1 15.758214377412727 9.162188803055287 3.1549287370621593 0 0 0
802 1 18.151341671476125 9.396365852102004 1.5788111679609405 0 0 0
846 1 21.451644696643086 5.404156192413505 16.52530216457525 0 0 0
578 1 21.551837730218168 9.180209659760012 1.487553134518687 0 0 0
2943 1 13.137609821069656 20.830377404810804 9.658463874382562 1 0 0
99 1 3.036035864004228 9.683285488527305 4.254384547682516 0 0 1
3318 1 7.524782774505509 10.078668277231337 3.5601706838180442 1 0 0
200 1 13.350244707445825 11.20411374047741 4.948288914175638 0 0 0
28 1 15.87184538837621 12.014780996551902 3.852375605387026 0 0 0
50 1 18.947223843798433 9.301536023950968 4.68293354798598 0 0 1
612 1 24.11606281333401 9.86178941763239 3.7817576045211347 0 0 0
250 1 20.985155704003375 13.923549398367749 3.0430686439654817 0 0 1
570 1 25.370347785411173 19.49624933821957 4.422587967872832 0 0 0
3173 1 1.1472564715460185 14.729770915923796 3.5112449822802914 1 0 1
73 1 3.5888437195537226 13.814727981872519 4.889794885496541 0 0 0
554 1 9.090449088503066 12.810075597697848 6.829571580919844 0 0 1
269 1 9.37310679464622 12.501765306117953 3.823780942693625 0 0 1
62 1 12.106192925220341 13.08723034373644 3.248212285455682 0 0 0
194 1 19.852201525855058 15.774390750356208 4.948166332926698 0 0 0
267 1 22.598856920756155 16.393276555765485 5.2968787943240505 0 0 1
416 1 24.804669616801736 14.261166213896896 5.458249433784845 0 0 0
172 1 0.07023132579920742 17.055003183003056 2.1406384717044933 0 0 0
261 1 4.045567460234536 15.978040462284717 16.24737068534415 0 0 0
405 1 5.953214768251208 17.94176760281255 1.8403660224040315 0 0 1
212 1 14.402118263491584 16.640774052144994 16.592303598977775 0 0 0
85 1 18.426594368511893 19.069844795523345 3.407624263576938 0 0 0
197 1 18.984553126245437 16.5609568669182 2.1736482533295725 0 0 1
189 1 22.89613776730112 18.04679056956083 16.428684167567848 0 0 -1
763 1 25.984736757210364 17.02853551943742 5.2464015335382586 0 0 0
3072 1 1.165267830313311 8.15033927588533 15.455030678969555 1 0 -1
317 1 2.8282990466075444 17.86676455824028 2.3821045824800486 0 0 1
436 1 9.20295891193797 18.75173726554117 3.353340991743848 0 0 2
534 1 11.44492489885176 17.461593942964857 2.70007395828621 0 0 1
19 1 18.428625912456827 0.06133854027172065 4.644350640297529 0 0 1
120 1 15.879811408246919 16.65299193621343 3.4154517466977037 0 0 1
448 1 21.044542711691328 20.294430802888797 1.394371287940463 0 0 0
3386 1 2.0260454791686406 20.443519802887465 1.9620480617752492 1 0 0
474 1 25.07894974831717 20.326959871918735 16.212148658754295 0 0 -1
3014 1 5.862995794637623 3.155076142504752 5.672119847481156 1 0 1
370 1 12.570654695000263 19.971954805875452 3.4234162253777285 0 0 0
192 1 12.185910349873215 2.6195027147840535 5.454109718401993 0 0 0
64 1 16.846743379165144 2.106123086307032 5.52790220054309 0 0 1
3224 1 3.7670665940952412 20.616824503145637 8.640569017079248 1 0 0
273 1 24.815403979765303 0.9340257103324834 8.011560358706927 0 0 1
144 1 3.3836526115143424 3.3451632388034116 7.096717786699497 0 0 0
2968 1 10.338412135589328 16.95052122968902 15.764634298009945 1 0 0
266 1 5.323985387995443 2.379420267519869 8.894164674284514 0 0 0
1069 1 5.72387533608669 6.185044649579646 5.468829352406342 0 0 0
25 1 8.446248057970287 4.560156640043347 6.0709674574037304 0 1 0
10 1 13.724108937755112 5.058991684761949 5.983783313578517 0 0 0
61 1 20.491756988800326 4.5859175378597845 4.503660046232634 0 0 0
805 1 22.718056544664158 8.222360266544452 5.519942688237532 0 0 0
183 1 7.630178823395397 20.079484742564926 16.666694662032846 0 0 0
3175 1 5.8308754498073965 7.022939393754381 7.979662645183483 1 0 1
249 1 9.951842698070607 6.770737717513646 5.091153830320256 0 0 2
160 1 10.010140447795239 8.748895106316178 7.074564224468262 0 0 0
32 1 15.386246807661681 10.042432293588886 7.064894781885359 0 0 0
230 1 17.867418513314803 5.416113957536187 6.502731642181401 0 0 0
152 1 20.933725804045217 7.481859488926754 3.773930056323833 0 0 1
858 1 23.87257902388755 7.452320077677127 1.789554622709299 0 0 1
270 1 1.3028594030750682 9.216330840885451 6.966317503686558 0 0 1
3481 1 0.4969163970080492 10.618261689542782 4.182874979063371 1 1 1
3034 1 5.1825519638631645 11.282251003773531 4.397614679524759 1 0 0
488 1 6.640274663586346 11.361409036770322 6.938550678351825 0 0 0
310 1 11.619121150609054 11.194795349553958 7.170666277539114 0 1 0
164 1 18.80765038924944 12.094114489493515 4.129177799664966 0 0 1
82 1 16.521253107568377 7.934719400236708 5.4436902618062035 0 0 0
536 1 20.831867665919386 12.279535960831128 7.449424669147646 0 0 0
545 1 25.871864751222784 10.170629694205653 12.758914776344513 0 1 0
695 1 25.41509434348614 10.801537815798106 8.344036112535985 0 0 1
2994 1 2.732808124213956 12.041050994759733 6.958467437313582 1 0 0
3100 1 9.92489839359408 15.577260704614135 5.8013054842675835 1 0 0
2938 1 8.171054786119418 14.930934447756103 9.227468854621979 1 0 0
830 1 15.86975358894929 13.314445391368475 6.533454942899867 0 0 0
75 1 18.839366339191706 13.773157459327772 6.241097849162842 0 0 0
3038 1 5.090572138345921 15.977437868408328 5.659016167543657 1 0 0
2963 1 7.4652196471126455 16.427507537103313 4.259333413909072 1 0 0
57 1 6.488783966138978 18.00457515094879 9.673346466349212 0 0 0
492 1 12.149235672074951 15.760989561757151 4.47438684032722 0 0 1
910 1 10.134429253554677 17.00709875005544 8.216652358695217 0 0 1
67 1 14.782209635565607 15.675381515611221 5.644521891319457 0 0 0
257 1 19.470612546097506 13.57528171592457 10.067855851049563 0 0 0
1044 1 22.278878089742076 16.0532619891375 7.945602282046998 0 0 0
125 1 8.158279331509517 15.334538794490618 15.677198031608826 0 0 0
308 1 3.524931168963027 18.280915604570055 5.091688008139707 0 0 1
2905 1 0.8642385630393922 17.799205258228064 6.172084810854016 1 0 -1
987 1 22.36429802255736 21.225491119400186 14.57974110116924 0 0 0
594 1 21.120730472499908 2.3415408396740856 11.586475308203655 0 0 0
288 1 0.2797738724470378 20.432778265929326 6.0885559580697155 0 0 0
135 1 9.423785981081668 19.005190473913913 5.989612165073137 0 0 1
129 1 18.73665395047801 18.168766156730747 6.06974322381284 0 0 0
27 1 15.590445265177783 19.50483373406868 3.454195361432782 0 0 1
137 1 0.6223308429334702 13.679091533497862 8.228035025638484 0 0 0
3469 1 14.298851190253547 1.0904541480088277 4.998881575952305 1 1 1
558 1 11.002001376609757 20.648933826748078 7.374349691681011 0 0 1
2941 1 1.8874330622191486 1.1013503813804435 7.08773408635274 1 0 1
1131 1 19.244280854153306 21.066443364805586 9.017250397418223 0 0 0
139 1 7.562772159789021 0.7984059489443838 8.526924933156561 0 0 0
264 1 10.336741360572939 0.9130405304771737 6.58384128142124 0 0 1
1021 1 19.064976049021794 2.6322333121306394 9.496406119377243 0 1 1
3277 1 21.97976700765664 1.6751746637440048 7.707464904427983 1 1 0
451 1 23.20367626799983 4.398133639796783 8.574102273375042 0 1 0
3020 1 1.1950405320126776 0.23924731442718047 13.468318379513537 1 0 -1
599 1 22.82511136285484 4.657408293181957 11.403503631445833 0 0 -1
122 1 25.275050095545488 3.412968262054104 12.42781358610968 0 0 1
3416 1 7.172523264367251 4.673293615984742 8.787913495262494 1 1 0
48 1 9.730154469704932 5.597020434376317 10.47514048523931 0 0 1
180 1 9.578493175173206 3.2198463730771434 8.55287596349302 0 0 0
132 1 12.265199094041538 4.7740930571377325 8.575153052678846 0 0 -1
98 1 15.93709647845195 5.768866356676004 8.607107262110285 0 0 1
211 1 15.18642847344545 2.96826314937509 7.8378526612632085 0 0 1
163 1 20.45059695330774 4.405176942105066 7.566951760583178 0 0 0
803 1 21.679347325172667 7.577946925071242 11.517950039883932 0 0 0
734 1 24.17761716814289 6.366954015344755 6.900241336544566 0 0 0
2932 1 2.7200036142049235 5.490440239009851 8.979486617414757 1 0 0
228 1 3.383861872465298 8.316530206357832 9.068042318026992 0 0 0
3183 1 11.25051049663543 7.691606539762894 9.256362136526574 1 0 0
236 1 14.033791436223023 7.813280934553325 8.516222077830232 0 0 1
227 1 14.01507816751082 10.394082829353845 11.204957015783815 0 0 0
128 1 15.90214285792298 8.593616383741482 10.819912035275971 0 0 0
206 1 22.10855939513993 10.094241493901025 9.97569678717427 0 0 0
384 1 20.595152618405063 20.541951733492926 4.217278661734225 0 0 1
101 1 7.458586675726163 9.196178812071036 7.929810392796658 0 0 0
223 1 7.190261374784908 10.025881825361358 10.499807739236465 0 0 0
262 1 13.775857410606498 12.492420229839306 8.738028739380468 0 0 0
490 1 17.518915849803104 10.95646677219353 8.643091496049312 0 1 1
762 1 20.49189657704061 9.55477825554002 7.170626240703796 0 0 0
26 1 7.21679771354076 19.599647908257406 7.41791401444533 0 0 0
3122 1 0.4864962846857126 13.938682215299975 10.963304628734129 1 0 -1
620 1 25.71263207575705 4.584285903944279 5.118338113305718 0 0 0
2896 1 4.743760068063284 12.773708440789829 8.618072395400365 1 0 0
79 1 10.337431725550038 13.166794769949048 9.567353630673573 0 0 0
265 1 12.509559769152446 14.29061740974115 10.563559006463198 0 0 0
332 1 16.297001692771296 13.131206541606282 9.97090958272476 0 0 1
226 1 19.47695392362129 16.044187342972716 8.650417736616394 0 0 0
34 1 23.566418815534067 13.338449894424123 7.93096905264334 0 0 0
21 1 24.638806645840795 17.035453113702864 9.250295056496252 0 0 0
899 1 25.790793326684522 3.260184899258495 9.540565438962126 0 1 0
217 1 1.108979817076638 16.540639283223666 8.38051468059746 0 0 -1
165 1 5.556991979360206 15.460505411882385 8.253788096711931 0 0 0
295 1 9.086453413218225 17.44040958866607 11.05837521864893 0 0 1
3119 1 4.3134107643039545 15.402768402770544 12.683087114590458 1 0 0
260 1 6.377576786151548 13.828351895520049 11.567641443327442 0 0 0
527 1 12.512506072553785 17.483561516926464 9.71561964626242 0 0 0
394 1 16.53959869045466 15.988697787763364 9.719468291143526 0 0 -1
942 1 20.764864487779132 18.914856592407027 7.773575439337482 0 0 0
237 1 22.28623391169772 12.961708911195913 10.405507161665563 0 0 0
1125 1 22.84796818877138 19.39458618738091 5.5823913727623875 0 0 0
2 1 4.035632033872891 19.086789787093497 11.176292610861285 0 0 0
181 1 11.539323313792748 19.618416750328223 11.731674292128133 0 0 0
9 1 16.518897176163232 20.612210168993297 6.111602697049574 0 0 0
141 1 14.556930076565576 17.11445163537866 8.030315780074062 0 0 0
37 1 18.039918265568904 17.644898012004884 11.763911078675934 0 0 0
544 1 17.36052419756355 20.00235226686763 10.612421630091482 0 0 1
74 1 22.543245420820544 12.24734790869465 4.8840914450780035 0 0 0
3143 1 4.004531364981925 0.49009075434849864 16.005408232442825 1 0 0
835 1 14.804474174647822 19.312272969506054 13.710570029095798 0 0 -1
105 1 2.6459012015311694 2.984757330179998 12.930794695340325 0 0 0
86 1 4.593734997491857 1.103250094483483 11.83905539100367 0 0 1
13 1 7.0285100386826285 2.621460919049742 12.590103794253066 0 0 0
669 1 25.688064489543642 15.118190535019167 16.6842284875707 0 0 0
272 1 8.903094000997386 1.324142687467944 10.946880757112812 0 0 0
210 1 1.766228078911862 5.263745745002424 5.335392087917796 0 0 0
103 1 15.102103739353932 2.2177115937610448 12.143507752363652 0 0 -1
834 1 17.152070559353522 3.9139081093818477 12.58621183407956 0 0 0
198 1 19.116122820307893 2.2139594003378096 13.310120928240652 0 0 0
1086 1 13.648591793225151 19.515166102835284 16.347152607737712 0 0 0
3102 1 3.861234414965601 1.0549908339267997 3.230113501276095 1 0 1
12 1 5.32790063786608 21.354223169114352 15.09826812211572 0 0 -1
2989 1 3.8822913462961353 5.277347116688156 11.414317933477955 1 0 0
3016 1 11.740164324569138 1.9337836402920567 11.56752422414152 1 0 1
83 1 10.847345484909154 2.6171900410293447 14.80425560545667 0 0 0
367 1 13.852892334334543 4.625663848950198 10.786167644048362 0 1 1
43 1 15.08148043965145 6.551631455252034 12.293712791428584 0 0 0
54 1 18.13892851846195 4.941456272940327 10.399150985070559 0 0 0
526 1 23.008594371929753 5.883956005446935 14.109998931328878 0 0 0
14 1 25.39252286560768 6.3717800512892255 15.339993898306867 0 0 -1
20 1 12.988351304999115 1.633567740280971 9.180298621348069 0 0 0
539 1 5.120095792852952 8.493415688696434 13.856768718349018 0 0 0
410 1 7.211310523468688 7.970287680704357 12.55370819291076 0 0 0
222 1 11.307071859989485 4.498694518519192 12.464897282332656 0 0 0
233 1 12.884778892923393 7.7086185072155455 13.664256882568445 0 0 0
3167 1 11.615205261558012 9.086134241896206 11.573725451540229 1 0 0
134 1 18.14841279165036 7.901177400518962 14.202794099062515 0 0 0
710 1 19.22481561026702 9.768177154418755 10.37033861566851 0 0 0
149 1 22.34764424545814 10.678837031596355 13.085333529913887 0 0 0
454 1 24.522773804899618 8.839223232623334 10.847405470063372 0 1 -1
3153 1 13.900957784497916 0.24859423174259251 2.4558710106097195 1 0 1
525 1 3.6921511778536447 11.047354093970299 13.766594970871871 0 0 -1
208 1 4.9434063565586115 11.460539845298703 11.259996611190195 0 0 0
213 1 9.818954230412734 10.834054125498954 10.76744104896611 0 0 -1
127 1 12.212860346887297 11.801680652328917 15.362839721763248 0 0 0
242 1 13.489933189193104 12.854651488611282 12.96487876304859 0 0 -1
107 1 17.257187941430164 10.272426171822383 12.695411298337248 0 0 -1
117 1 22.264971954858634 12.023025513725992 15.523201861216565 0 0 1
3451 1 1.6069669674603346 14.830286041240496 14.861075621712256 1 0 -1
3268 1 2.422172973833656 13.387554518794998 12.631675640905648 1 0 -1
286 1 8.16933080610768 13.336567240952677 13.482015063813995 0 1 -1
5 1 9.925483670059839 11.127306947593137 13.488655266654852 0 0 -1
282 1 10.158878098341054 15.088215964214701 12.179506217200139 0 0 0
124 1 16.371301638314083 13.003776417800017 12.653949649196313 0 0 -1
2997 1 19.91250640421569 11.815820483183371 12.366084166058029 1 0 0
106 1 19.794244707126488 15.410739926466599 12.220917481887055 0 0 -1
219 1 21.87056680690524 14.750800983059492 14.465023866515294 0 0 0
889 1 25.778344141520094 13.257253356297413 10.260363301749678 0 1 0
168 1 0.7521722145813712 0.14612297243584876 3.508179408129622 0 0 0
258 1 3.5648600784563533 16.407907949896718 10.047538435383174 0 0 -1
365 1 1.801297875884647 20.301284206083693 12.128065577803241 0 0 0
191 1 5.930377286801835 16.972989989725423 14.470192245357529 0 0 -1
883 1 13.481048049080577 17.0719476887394 12.552911325496295 0 0 1
442 1 15.868947990836952 16.008995037743755 12.477027075942798 0 0 -1
353 1 17.073681758444277 18.098648531736362 14.47418195778386 0 0 0
716 1 23.138691638097953 15.988906459498155 11.27336626082482 0 0 0
2956 1 16.635639596811636 0.8736670786919274 9.767085991349346 1 0 0
119 1 23.83519976764166 19.69679437567149 8.299348623925663 0 0 0
179 1 25.770648775986274 17.736256510443013 1.8037291133372202 0 0 1
340 1 6.132509714302682 19.585459463584794 13.088193151903436 0 0 0
33 1 11.550719742920638 20.547007063691815 14.82169097972818 0 0 -1
100 1 8.56915566367072 20.32211362903669 11.835961159159124 0 0 1
187 1 21.176785378989937 18.00954245126895 10.56605884948954 0 0 1
543 1 9.351440498538853 19.117418758231626 14.540822091719344 0 0 -1
17 1 22.607188892155847 20.24916132994302 10.862891115672815 0 0 -1
902 1 20.333492689514237 17.283497056358893 15.264709399713679 0 0 0
292 1 8.180683077706627 1.9359613994193963 15.040896699289709 0 1 0
685 1 13.13882417812133 0.22100328247125225 13.240387109765301 0 0 -1
1056 1 20.959493404543156 1.4126061578420548 5.268600581280455 0 1 0
193 1 23.83946297237771 2.987291328615948 14.675981033661294 0 0 0
3096 1 6.730817736272911 5.3223642613324085 11.696778257497613 1 0 0
24 1 12.226973757978028 4.811360753112955 1.5338022807382887 0 0 0
414 1 14.651641429144968 6.2267331734108105 16.778554262084526 0 1 -1
339 1 17.30819297086521 3.8995750079031106 1.2441171894156753 0 1 0
407 1 16.514089301697613 5.769442262108684 14.850598061842254 0 0 0
232 1 19.655263252380294 3.2434463914365845 15.6474398009782 0 0 0
91 1 18.901639042524756 7.3689795430660165 11.61236644879923 0 0 -1
735 1 25.039398546554004 4.103394664883527 1.2431904482254872 0 0 2
532 1 17.685154514115904 20.236687218044782 16.27459505033987 0 0 -1
2969 1 2.848722531553853 6.585052899403316 13.821493566498575 1 0 0
399 1 8.762674217921111 7.1578292597869355 14.91764216706182 0 0 -1
7 1 11.307080695202577 6.163105393226955 14.835429580658761 0 0 0
81 1 13.924859461608085 9.435234276008613 15.625591113798944 0 0 -1
225 1 18.88346854787513 6.683288659341611 16.73248889350423 0 0 -1
723 1 21.154673637159554 8.166294055600375 14.486327752062403 0 0 -2
58 1 3.2074711787683365 9.645404266198629 1.2966027233221489 0 0 0
784 1 20.54663212988174 19.324832618953124 13.339191132752246 0 0 0
330 1 6.194475721911614 9.759283457630842 16.62466484140559 0 1 0
202 1 9.06400706813446 9.691790166523123 15.619336432697468 0 0 0
204 1 10.631114179244719 10.34081002363928 2.2120025915318653 0 0 1
109 1 16.53685521046659 10.541605462963918 15.332005009109226 0 0 0
820 1 19.630304821488775 12.168599402496517 16.744960478656157 0 0 0
508 1 23.925224153286372 12.13686920721594 2.026234269013196 0 1 1
791 1 23.95976879764113 12.976575033060207 12.880238165351459 0 0 0
1142 1 23.9255037677983 17.178946842454238 13.914541480679896 0 0 0
80 1 2.0893235215773758 12.373586299113613 2.277888628503442 0 0 1
252 1 11.983189002491212 15.350506166417683 14.141688944962786 0 0 -1
406 1 5.8674497728421295 12.079350440305864 15.212299695467749 0 0 -1
396 1 4.964478638934495 13.289329354675461 1.9902422025724846 0 0 0
2944 1 7.538370040541701 14.266831114548747 2.62585676393293 1 0 0
504 1 13.084553829958413 14.097906430293241 16.550856067902842 0 0 -1
126 1 15.779006731611254 13.020809181908275 16.663017975441704 0 0 0
158 1 16.977191317334107 15.69551864964958 15.832076535978475 0 0 -1
162 1 22.94660987441704 15.185118792281804 1.444529111243905 0 0 1
296 1 18.741786678215362 13.993418397811705 14.519994858150683 0 0 0
55 1 15.44878483137907 19.80601066243717 8.561510215738735 0 0 1
471 1 7.694963940599494 0.5856325250429133 5.319715615754241 0 1 1
395 1 4.566542829657906 20.64236812962312 5.9390669118070125 0 0 0
531 1 0.1751407337043412 18.012553519623243 10.687079315461672 0 0 0
175 1 0.20516471427723104 4.48400123412281 3.238869886866784 0 0 0
510 1 1.1680381083602664 21.387859137140524 8.461756344663002 0 0 1
1147 1 26.156306508984493 15.556854040956335 13.854117784303904 0 0 0
837 1 26.001241834843263 7.556915015477387 8.520502384782002 0 0 0
2532 1 0.1107404202347766 3.8354201424614356 12.353428628170988 1 0 0
481 1 21.060101926579616 0.0013104881047283357 9.766451440504763 0 1 0
464 1 3.1688786178107615 0.09843349526735778 9.53440940989966 0 1 0
151 1 23.472652498842507 0.13741081020059198 14.029087390779436 0 0 1
3328 1 1.2818588565709685 22.17731474214135 3.921941556792576 1 0 0
3384 1 7.1043305447579765 22.039347079762862 4.919663776480164 1 0 1
472 1 7.374666407529725 23.854684356395992 7.305454951788916 0 0 1
196 1 11.188329257931642 42.188100606384715 4.085553703071508 0 -1 0
566 1 21.8341283708626 42.084289941955205 15.987151861458317 0 0 0
335 1 17.25001952211896 23.666863711408247 3.6918101374526615 0 0 1
123 1 20.163122378988295 23.462045225136603 3.713785689583025 0 0 1
221 1 0.12986709378622355 23.294519665473075 11.217915881914893 0 0 -2
329 1 4.807120529065457 23.989933534187333 2.100289015418438 0 0 1
555 1 5.485519085002223 26.931336825468374 1.8047886819682526 0 0 0
898 1 7.8427690245720685 25.13383408026344 4.0173821192968555 0 0 1
303 1 8.730651586533371 27.001956784453828 1.9187664322209645 0 0 1
207 1 15.045569976466645 27.02023242230465 3.926502656737083 0 -1 0
133 1 17.049524172026047 26.91264408421347 15.898450757644888 0 0 0
1094 1 21.30856263226985 26.387554873572267 3.441433674676297 0 0 0
336 1 23.518888499366703 22.38717817540856 2.188388949848442 0 0 1
389 1 23.910814650622825 26.372453629252732 2.7116500264608696 0 0 0
3090 1 1.258563253465023 26.65113233878627 16.561444391876307 1 -1 0
3337 1 3.0033043346202795 28.737744890471784 15.873536052005742 1 0 -1
556 1 2.911455345817661 27.58186123432889 3.2194037988088815 0 0 2
546 1 13.339860204187671 24.35219914206533 4.284743627516152 0 0 1
469 1 9.030295260445568 29.31094661404401 15.539087055480808 0 0 1
449 1 15.682766829085521 29.597161232340962 2.721085241908125 0 0 0
182 1 16.9509625513386 30.957209420413335 4.724030277079473 0 0 0
503 1 19.949848024712118 30.393682435518606 5.0070226678074485 0 0 0
351 1 19.420045173902732 28.62826345128376 2.792427973528392 0 0 0
1129 1 21.071291898540604 28.856250804783144 16.15719481631099 0 0 -1
271 1 16.387465072335978 21.591393320882162 12.54648803950026 0 0 0
3426 1 8.450864121058379 31.957161734629562 2.2092403691629174 1 0 2
438 1 14.071316976797528 31.883478840288312 3.114728768575578 0 0 0
452 1 13.264863656629627 32.72806631583526 15.983404069271193 0 0 0
419 1 21.057479004372887 32.82753402658178 3.7254681321591594 0 0 -1
565 1 22.387002090460964 33.26725235952689 1.4316582727397331 0 0 1
439 1 25.905665674378216 30.22110951331037 2.5656992840165374 0 0 0
148 1 24.563025497079064 34.852193278683124 2.2917063165999023 0 -1 0
94 1 6.173613838584932 35.3159664897969 2.1174875324798115 0 -1 1
3055 1 3.249461169779057 35.67229305500147 1.9270823585888301 1 -1 0
432 1 10.205344775059798 33.67938120862685 3.1953813312489245 0 0 2
214 1 10.99780186455506 34.3610217440419 16.211380632322857 0 -1 -1
298 1 14.901928316361783 35.24451769234207 5.269065146824216 0 0 0
380 1 16.93270155430462 37.01423624645289 1.53155051507617 0 0 0
39 1 19.665827687569934 35.0475985571685 4.211520512638144 0 -1 0
218 1 1.0415999507019882 39.91916548483692 1.4633524748005937 0 -1 1
3211 1 5.830330316847268 39.15000386488816 16.749398529853647 1 0 -1
517 1 10.17045729777834 38.77534891346046 2.358066093906938 0 0 2
333 1 8.193626888245513 38.73685766633332 15.629468132241046 0 0 0
115 1 12.722498887883415 38.74459276325481 1.815330277433344 0 -1 2
552 1 14.644154306255942 37.0701271531564 3.15007389893285 0 0 -1
30 1 17.66752490878275 39.74638071808278 1.953488573135706 0 -1 1
897 1 19.734690563879617 36.17064601902458 1.8600626731754601 0 0 0
220 1 21.29293694668711 38.26052346439828 1.8223161972399735 0 -1 0
888 1 24.738985614082914 38.40862998539618 16.59586533392449 0 0 -1
686 1 19.44378224993445 22.918540183350483 16.296425556301998 0 0 -1
3152 1 5.925152118642711 41.79480320459731 1.6816556838630121 1 -1 0
382 1 9.92812928606453 41.61503940075708 1.6357806345691845 0 0 0
402 1 15.177688133311069 40.71863986724845 2.103715009672115 0 0 2
229 1 16.03388699627344 42.78513334426976 13.917322354215738 0 -1 0
53 1 4.02139646366251 41.85139281722795 13.453436766250585 0 -1 -1
29 1 24.033228615875675 42.206481854962576 2.4966818330876928 0 -1 1
178 1 3.770184150249862 23.021617787430838 4.654944134547595 0 0 1
3476 1 0.5539893784313565 25.816954871558696 12.742611668613788 1 0 -1
388 1 1.4341033348393373 30.30538611667563 13.905674693660568 0 0 -1
3375 1 1.8001769826231382 28.185385798928206 8.423076100740683 1 0 1
814 1 18.979009181535137 22.653354834363842 6.554424065696838 0 0 0
3117 1 0.3825003405142697 36.421276466499606 11.145277789339604 1 -1 0
358 1 1.387537764030237 25.774309854572444 4.23417874628463 0 0 1
482 1 6.70226012708199 27.80914663060544 4.440639580349855 0 0 1
721 1 11.201325537615919 22.62867178996696 5.319269478999045 0 0 0
462 1 17.764390732082532 26.28047578227079 3.491916554719278 0 0 2
516 1 18.848885134337188 26.623584831966042 5.850680647282822 0 0 1
513 1 21.96722340921388 23.15253767651929 6.329154624503999 0 0 1
3067 1 1.4475166128601054 42.522840122482705 16.468428035714446 1 -1 0
360 1 6.903595420536425 30.53008509418894 5.654454209419947 0 0 0
3348 1 11.404778687570781 26.683306318469818 3.396535981062297 1 0 1
3307 1 9.069117535873552 29.454788805974605 3.2169360993000193 1 0 1
289 1 13.577835485323028 28.48563758927596 6.112696013405761 0 0 0
480 1 15.995567531219047 30.01900222962752 6.911439634335321 0 0 0
276 1 21.751703270346873 28.153676793640063 5.848081174661272 0 0 2
542 1 24.165247745323498 28.864870495026565 4.375149060090303 0 0 0
499 1 1.6571551112731444 29.98205885588737 3.8382043689802923 0 0 0
3127 1 2.105513940819568 32.56593122182396 5.095527180139664 1 -1 0
502 1 6.0146860501117425 32.6497840736124 2.8963859430892716 0 0 1
447 1 4.880063327401649 32.930401965431415 5.383210103887328 0 0 1
434 1 11.840385803476952 31.983495514941424 4.698322644107284 0 0 1
557 1 11.268184556240078 29.248944668580563 4.847125259068033 0 0 0
529 1 17.26468665485904 33.68668996057367 5.198351058229314 0 0 2
379 1 16.129408085596168 31.778610104192285 8.945209513098234 0 0 1
177 1 22.95505931757851 33.144894011050205 5.493300529117642 0 -1 0
568 1 25.292788679879973 32.866517676017395 4.071844543372336 0 0 0
95 1 1.6904274136260538 35.053881915602176 4.199062773173624 0 -1 1
143 1 10.085250079896458 36.303641944029856 3.927306065766534 0 -1 0
484 1 6.421503542625069 35.05846913214715 6.1470898293586735 0 0 1
450 1 12.915692980491128 33.77169322505151 6.615098521383774 0 0 1
470 1 20.440922762049947 37.25298463527361 5.643196417022158 0 0 0
63 1 18.108185529826432 37.07471465884242 7.3388714494345235 0 -1 0
93 1 23.1744039146406 35.82490499179558 5.9950793457818525 0 -1 0
1106 1 23.37055997200823 37.20234953627348 3.312451910055617 0 0 0
431 1 1.9691391857887637 39.965225591900655 4.481015471158715 0 0 1
424 1 25.698624129150854 26.059953957189318 9.904112385644467 0 0 0
2999 1 7.498408470035612 36.44556271370659 4.085410296735116 1 -1 1
253 1 8.954306508389106 39.45440638797999 4.742853423407823 0 -1 0
518 1 12.590597447160077 40.09186252739052 4.879351051464771 0 0 0
334 1 15.251648662293665 39.64318175196696 4.980453909530075 0 0 1
660 1 17.92415456630664 40.44242687439278 5.612373140509734 0 -1 1
961 1 25.56573085069518 38.09110740798856 4.892555164456706 0 0 1
52 1 3.3135866254241866 41.98657169612272 5.714595540640527 0 -1 1
72 1 18.305402003186295 42.666397360186934 2.0469035305931342 0 -1 -1
327 1 5.796432461779601 41.52848278459458 4.556538032107378 0 0 1
235 1 23.090925800719223 42.11518622217485 11.396407312467524 0 -1 0
1013 1 25.69283059799883 27.89216822335194 6.25313263772642 0 0 0
511 1 13.95104848167247 41.84409756354539 6.754932555192033 0 0 0
533 1 23.82739261274376 24.02458366187124 4.450914541541891 0 0 1
171 1 19.92483304232317 39.29784395886239 4.025574745459345 0 -1 0
161 1 21.271098488325137 41.41412734612245 5.5052175936568375 0 -1 0
70 1 25.492907471001274 40.19541341645071 6.444066297505275 0 -1 1
626 1 24.064627872128163 42.34313133251825 5.432818471097349 0 -1 0
348 1 25.908414799665845 24.02510320788115 15.023667033609106 0 0 0
341 1 18.883710557181047 22.08987347769744 13.552717522066931 0 0 0
240 1 5.0177928149158495 23.159140121394255 9.808206837047546 0 0 -1
3334 1 7.375411630669276 22.812017289766246 11.712523570123391 1 0 1
69 1 15.874731371838541 23.3656573217985 5.939477949967367 0 0 0
3 1 25.63682930419459 34.66918989837724 11.717765118251817 0 -1 0
3463 1 0.570770190092561 36.68869125664091 15.100639889029846 1 0 0
349 1 23.230853486291167 22.61014403197368 8.726838700633778 0 0 0
430 1 20.739801159840596 22.50936800921744 10.645572621427593 0 0 0
153 1 2.4673791996410044 25.378509724047404 8.520203835251415 0 0 0
453 1 6.382219506560129 26.449483793807538 6.774281247345819 0 0 1
3162 1 3.7205446569850547 25.308511402853437 6.208640794149733 1 -1 0
283 1 9.98368511408781 24.910146193707416 5.7751100071676085 0 0 0
299 1 14.655116787619642 24.56523461631987 8.430269098868044 0 0 0
1141 1 17.228050191497115 27.35934769902191 9.608438167566533 0 0 0
350 1 17.838911889443953 24.934949177406175 8.014904945928087 0 0 0
408 1 20.341161918271002 25.01715232408094 9.402500144535535 0 0 0
287 1 21.93164652232506 25.961452636860013 7.256008614604393 0 0 0
989 1 23.710460029385896 25.752560366715525 11.939129462132977 0 0 0
373 1 7.721207702784568 29.981574078390206 8.539001678958641 0 0 -1
363 1 12.920246886282056 25.86791875442536 6.848955895111095 0 0 1
569 1 10.027414947729097 28.889031460567807 7.217144930405231 0 0 1
66 1 12.374977592254563 29.764609039213504 8.44252325913681 0 -1 0
417 1 18.663829010939004 29.05066595599381 7.218272007785054 0 0 0
460 1 21.15250491403294 29.35294768340553 8.49409912169736 0 0 -1
530 1 21.911589986292473 27.792062618774633 10.646178473977068 0 0 -1
841 1 24.06595448183804 27.68605768628281 8.53851465040317 0 0 -1
400 1 0.5126159660104541 32.614054029555916 8.085907600577404 0 0 1
3262 1 2.6356067584926612 34.27390432258755 8.569639078131758 1 0 -1