
# read in graphite data
read_data data.graphite group graphite extra/atom/types 1
Reading data file ...
  orthogonal box = (0.0000000 0.0000000 0.0000000) to (157.50400 42.924151 10.062000)
  6 by 2 by 1 MPI processor grid
  reading atoms ...
  7872 atoms
  reading velocities ...
  7872 velocities
  read_data CPU = 0.014 seconds

# Insert water
read_data data.Ibeam_MLmW_240K add append shift 0.0 0.0 ${Z_G} group water offset 1 0 0 0 0
read_data data.Ibeam_MLmW_240K add append shift 0.0 0.0 10.062 group water offset 1 0 0 0 0
Reading data file ...
  orthogonal box = (0.0000000 0.0000000 0.0000000) to (157.50400 42.924151 26.855661)
  6 by 2 by 1 MPI processor grid
  reading atoms ...
  1440 atoms
  reading velocities ...
  1440 velocities
  read_data CPU = 0.004 seconds


# Define potential
# CHECK ON THIS %%%%%%%%%%%%
#
pair_style sw
pair_coeff * * MLC_e.sw C mW


# Delete water and ice atoms that are overlapping
#
delete_atoms overlap 2.5 water graphite
System init for delete_atoms ...
Neighbor list info ...
  update every 1 steps, delay 10 steps, check yes
  max neighbors/atom: 2000, page size: 100000
  master list distance cutoff = 6.6747184
  ghost atom cutoff = 6.6747184
  binsize = 3.3373592, bins = 48 13 9
  2 neighbor lists, perpetual/occasional/extra = 1 1 0
  (1) command delete_atoms, occasional, copy from (2)
      attributes: full, newton on
      pair build: copy
      stencil: none
      bin: none
  (2) pair sw, perpetual
      attributes: full, newton on
      pair build: full/bin/atomonly
      stencil: full/bin/3d
      bin: standard
Deleted 59 atoms, new total = 9253

write_data test.${NAME}
write_data test.Ibeam_240K
System init for write_data ...
Neighbor list info ...
  update every 1 steps, delay 10 steps, check yes
  max neighbors/atom: 2000, page size: 100000
  master list distance cutoff = 6.6747184
  ghost atom cutoff = 6.6747184
  binsize = 3.3373592, bins = 48 13 9
  1 neighbor lists, perpetual/occasional/extra = 1 0 0
  (1) pair sw, perpetual
      attributes: full, newton on
      pair build: full/bin/atomonly
      stencil: full/bin/3d
      bin: standard


# Fix graphite atoms in place
#
fix 1 graphite setforce 0.0 0.0 0.0
velocity graphite set 0.0 0.0 0.0
velocity water create ${TEMP} 120598 rot yes dist gaussian
velocity water create 240 120598 rot yes dist gaussian
timestep 5.0

# Define output
#

compute 1 water msd
compute 2 water stress/atom NULL
compute 3 water temp

thermo 100
thermo_style custom step c_3 press vol etotal ke pe c_1[4] density

# Neighbor lists
#
neigh_modify delay 0 every 1 check yes




# Set fixes
#
fix                 2 water momentum 10 linear 1 1 1 rescale
fix                 3 all nve
fix                 4 water temp/csvr ${TEMP} ${TEMP} 500.0 928347
fix                 4 water temp/csvr 240 ${TEMP} 500.0 928347
fix                 4 water temp/csvr 240 240 500.0 928347

# Run 0.25 ns equilibration
#
dump                1 all custom 100 eq.${NAME}.dump id type x y z vx vy vz
dump                1 all custom 100 eq.Ibeam_240K.dump id type x y z vx vy vz
run                 50000
Per MPI rank memory allocation (min/avg/max) = 5.650 | 5.658 | 5.663 Mbytes
Step c_3 Press Volume TotEng KinEng PotEng c_1[4] Density 
       0          240   -639.12754    181563.75   -12136.853    987.24429   -13124.097            0    1.0922001 
     100    278.82659   -813.35759    181563.75   -12221.529    1146.9582   -13368.487    1.5079349    1.0922001 
     200    285.76426   -663.38318    181563.75   -12410.185    1175.4964   -13585.681    3.0721922    1.0922001 
     300    282.19848   -479.69513    181563.75   -12558.698    1160.8285   -13719.527     5.375802    1.0922001 
     400    275.86992   -285.28171    181563.75   -12699.108    1134.7959   -13833.903    8.5761234    1.0922001 
     500    263.77814   -79.872583    181563.75   -12801.088    1085.0561   -13886.144    11.905749    1.0922001 
     600    247.48498   -159.09974    181563.75    -12960.76    1018.0339   -13978.794    14.216831    1.0922001 
     700    250.30371   -328.21704    181563.75   -13000.198    1029.6288   -14029.827    15.333758    1.0922001 
     800    239.09684    -473.6539    181563.75   -13079.434    983.52914   -14062.963    16.306135    1.0922001 
     900    242.79317   -319.39691    181563.75   -13087.524    998.73406   -14086.258    17.506419    1.0922001 
    1000    246.99662   -315.10254    181563.75   -13088.594     1016.025   -14104.619    18.656477    1.0922001 
    1100    242.57122   -236.30152    181563.75   -13142.151    997.82106   -14139.972     19.48229    1.0922001 
    1200     235.0312   -311.59878    181563.75   -13208.297    966.80504   -14175.102    20.378371    1.0922001 
    1300    243.51711   -535.93421    181563.75   -13193.181     1001.712   -14194.893    20.720325    1.0922001 
    1400    247.17393   -348.08336    181563.75   -13165.657    1016.7544   -14182.411    21.002189    1.0922001 
    1500    246.15845   -361.20354    181563.75   -13194.327    1012.5772   -14206.904    21.381239    1.0922001 
    1600    242.52979   -318.52814    181563.75   -13183.739    997.65061    -14181.39    21.406086    1.0922001 
    1700    238.74747   -447.78133    181563.75   -13203.355    982.09197   -14185.447    22.089824    1.0922001 
    1800     241.2627   -329.83364    181563.75   -13217.958    992.43843   -14210.396    22.823019    1.0922001 
    1900    248.56392   -226.92751    181563.75   -13161.995    1022.4721   -14184.467    23.491348    1.0922001 
    2000    247.44871   -376.06836    181563.75    -13143.23    1017.8847   -14161.115    24.384186    1.0922001 
    2100    248.18032   -231.85798    181563.75   -13148.137    1020.8942   -14169.031    24.761621    1.0922001 
    2200    252.22501   -366.79366    181563.75   -13157.628    1037.5321    -14195.16    25.547929    1.0922001 
    2300    246.07031   -352.91375    181563.75   -13214.252    1012.2146   -14226.466     25.78229    1.0922001 
    2400     245.6262    -348.9599    181563.75   -13222.773    1010.3877   -14233.161    26.344848    1.0922001 
    2500    237.91764   -255.26871    181563.75   -13221.247    978.67846   -14199.926    27.327492    1.0922001 
    2600    239.43139   -293.07032    181563.75   -13250.222    984.90529   -14235.128    28.301642    1.0922001 
    2700    250.12691   -230.20805    181563.75    -13235.03    1028.9015   -14263.932    28.771071    1.0922001 
    2800    237.94185   -281.50456    181563.75   -13251.943    978.77804   -14230.721    28.805514    1.0922001 
    2900    236.05791   -409.74789    181563.75   -13301.956    971.02843   -14272.984    29.121348    1.0922001 
    3000    236.00445   -444.13026    181563.75   -13313.875    970.80851   -14284.683     29.25748    1.0922001 
    3100    242.32188    -312.0139    181563.75   -13311.641     996.7954   -14308.436    29.412563    1.0922001 
    3200    232.89288   -332.38159    181563.75   -13329.037      958.009   -14287.046    30.054218    1.0922001 
    3300    236.37136   -196.48876    181563.75   -13285.901    972.31779   -14258.219     30.39824    1.0922001 
    3400    233.43663   -409.34877    181563.75   -13306.907    960.24576   -14267.153    30.706174    1.0922001 
    3500    236.67244   -187.46089    181563.75    -13317.73     973.5563   -14291.286    31.302113    1.0922001 
    3600    244.83007   -371.04168    181563.75   -13304.698    1007.1129    -14311.81    31.380765    1.0922001 
    3700    236.09121    -546.7367    181563.75   -13334.386     971.1654   -14305.552    31.588859    1.0922001 
    3800     236.1651   -341.96193    181563.75   -13319.757    971.46937   -14291.227     31.94358    1.0922001 
    3900     231.3844   -337.57071    181563.75   -13323.768    951.80387   -14275.572    32.036336    1.0922001 
    4000    236.60379   -347.75013    181563.75   -13332.039     973.2739   -14305.313    32.647157    1.0922001 
    4100    236.85647   -302.58579    181563.75   -13300.859    974.31331   -14275.172    32.900395    1.0922001 
    4200    246.59604   -413.68268    181563.75   -13270.176    1014.3772   -14284.553    32.554565    1.0922001 
    4300    246.22959   -355.13206    181563.75   -13208.655    1012.8698   -14221.525    32.604879    1.0922001 
    4400     244.9603   -458.19914    181563.75   -13227.678    1007.6486   -14235.327    32.758113    1.0922001 
    4500    245.02964   -412.05768    181563.75   -13275.682    1007.9338   -14283.616    33.339658    1.0922001 
    4600    243.53929   -364.75794    181563.75   -13286.958    1001.8032   -14288.761    34.345869    1.0922001 
    4700    241.55253   -329.46899    181563.75   -13283.498    993.63063   -14277.129    34.996968    1.0922001 
    4800    242.39964   -230.96774    181563.75   -13276.065    997.11527   -14273.181    35.574069    1.0922001 
    4900    241.71186   -440.71097    181563.75   -13313.167    994.28607   -14307.453    35.619064    1.0922001 
    5000    240.25961   -242.07149    181563.75   -13331.596     988.3122   -14319.908    35.652963    1.0922001 
    5100    232.54132   -372.50146    181563.75   -13339.019    956.56289   -14295.582    35.956322    1.0922001 
    5200    233.82943   -327.52232    181563.75   -13323.302    961.86153   -14285.164    36.398352    1.0922001 
    5300    228.53461   -394.67331    181563.75   -13372.853    940.08119   -14312.935    36.485623    1.0922001 
    5400    237.24931    -466.5363    181563.75   -13337.538    975.92927   -14313.467    36.199154    1.0922001 
    5500    232.30422   -365.08272    181563.75   -13369.022    955.58757   -14324.609    36.667962    1.0922001 
    5600    231.53736   -302.63422    181563.75   -13377.747    952.43308    -14330.18    37.041488    1.0922001 
    5700    239.16062    -281.7778    181563.75   -13335.995    983.79149   -14319.786    37.555559    1.0922001 
    5800    247.12545   -374.00256    181563.75   -13270.364    1016.5549   -14286.919    37.841221    1.0922001 
    5900    241.43344   -300.84444    181563.75   -13303.776    993.14077   -14296.917    38.276242    1.0922001 
    6000    248.21384   -424.10047    181563.75   -13382.816    1021.0321   -14403.848    38.212873    1.0922001 
    6100    237.41632   -419.34519    181563.75   -13377.134    976.61628   -14353.751    38.375771    1.0922001 
    6200    239.79557   -485.24121    181563.75   -13359.931    986.40335   -14346.334    38.554486    1.0922001 
    6300     246.4319   -379.32162    181563.75   -13337.927     1013.702   -14351.629     39.16956    1.0922001 
    6400    243.87012    -387.4166    181563.75   -13344.363    1003.1641   -14347.527    39.596965    1.0922001 
    6500    240.72226   -419.13231    181563.75   -13367.422    990.21532   -14357.637    39.785172    1.0922001 
    6600    242.05176   -459.82173    181563.75   -13402.917    995.68425   -14398.601    40.332599    1.0922001 
    6700    238.44863   -216.83403    181563.75   -13417.542    980.86269   -14398.405    40.964572    1.0922001 
    6800    233.45044   -395.48579    181563.75   -13396.414    960.30257   -14356.717    41.005535    1.0922001 
    6900    228.06159   -438.27253    181563.75   -13419.613    938.13541   -14357.749    40.688175    1.0922001 
    7000    227.47386   -434.66197    181563.75   -13404.397     935.7178   -14340.114    40.598637    1.0922001 
    7100    241.06852   -344.43784    181563.75   -13332.483    991.63968   -14324.122    41.263962    1.0922001 
    7200    241.08859   -388.10827    181563.75   -13345.097    991.72222   -14336.819    41.669682    1.0922001 
    7300    230.66334   -393.44231    181563.75   -13397.224    948.83777   -14346.062    41.914196    1.0922001 
    7400    234.17465   -393.75575    181563.75   -13404.988    963.28159    -14368.27    42.174038    1.0922001 
    7500    236.55414   -246.36469    181563.75   -13417.721    973.06969   -14390.791    42.156064    1.0922001 
    7600    230.63347   -428.62781    181563.75   -13432.868    948.71491   -14381.583    42.391848    1.0922001 
    7700    239.88957   -274.45839    181563.75   -13423.758    986.79002   -14410.548    42.631795    1.0922001 
    7800    238.51075   -350.86278    181563.75   -13386.677    981.11825   -14367.795    42.504391    1.0922001 
    7900    237.61878   -340.26605    181563.75   -13401.788    977.44911   -14379.237    42.470662    1.0922001 
    8000     238.5326   -424.96042    181563.75   -13398.745    981.20812   -14379.953    42.456352    1.0922001 
    8100     238.0542   -487.48851    181563.75    -13413.79    979.24022    -14393.03    42.822524    1.0922001 
    8200    226.77276   -480.79451    181563.75   -13441.713    932.83378   -14374.547    43.111133    1.0922001 
    8300    235.71436   -283.44588    181563.75   -13455.102    969.61521   -14424.717    43.279063    1.0922001 
    8400    228.11228   -375.67651    181563.75   -13438.269    938.34394   -14376.613    43.320145    1.0922001 
    8500      235.888    -287.3852    181563.75   -13424.995    970.32949   -14395.325    43.687293    1.0922001 
    8600    241.74284   -158.22667    181563.75   -13386.183    994.41349   -14380.597    44.150441    1.0922001 
    8700    229.69231   -397.72986    181563.75   -13440.293    944.84342   -14385.137    44.211728    1.0922001 
    8800    245.69719   -412.55646    181563.75   -13393.778    1010.6798   -14404.458     43.84144    1.0922001 
    8900    237.56669   -435.55463    181563.75   -13416.033    977.23484   -14393.268     43.78764    1.0922001 
    9000    241.84715   -435.13445    181563.75   -13373.067    994.84256    -14367.91    44.388356    1.0922001 
    9100     241.0636   -340.81272    181563.75    -13366.13    991.61941   -14357.749    45.073311    1.0922001 
    9200     235.4463   -397.39509    181563.75   -13390.683    968.51255   -14359.196    45.939549    1.0922001 
    9300    238.53765   -297.22338    181563.75   -13397.618    981.22888   -14378.847    46.903246    1.0922001 
    9400    237.03909   -212.75965    181563.75   -13411.557    975.06454   -14386.621    46.924225    1.0922001 
    9500    232.52915   -421.01645    181563.75   -13390.851    956.51283   -14347.364    47.146741    1.0922001 
    9600    232.89136   -281.99975    181563.75    -13455.35    958.00275   -14413.353    48.009427    1.0922001 
    9700     242.2525   -183.29197    181563.75   -13397.458    996.51001   -14393.968    48.230675    1.0922001 
    9800    232.70888   -349.88616    181563.75   -13423.847    957.25213   -14381.099    48.197467    1.0922001 
    9900    239.20738   -390.18638    181563.75   -13360.135    983.98385   -14344.119    47.860643    1.0922001 
   10000    251.49079   -392.97768    181563.75   -13310.119    1034.5119   -14344.631    47.828192    1.0922001 
   10100    249.97345   -263.08795    181563.75   -13339.455    1028.2703   -14367.725    48.190624    1.0922001 
   10200    245.61302   -248.26174    181563.75   -13333.869    1010.3335   -14344.202    49.158495    1.0922001 
   10300    241.32218   -306.45085    181563.75   -13320.139    992.68309   -14312.822     49.45331    1.0922001 
   10400    246.46458   -437.96539    181563.75   -13340.555    1013.8364   -14354.391    49.241473    1.0922001 
   10500    236.30086   -400.92389    181563.75   -13362.922     972.0278    -14334.95    49.226008    1.0922001 
   10600    240.69629    -341.8226    181563.75    -13318.38     990.1085   -14308.489    49.773844    1.0922001 
   10700    249.63145    -335.5726    181563.75   -13311.443    1026.8634   -14338.306    50.304943    1.0922001 
   10800    242.70626   -276.92957    181563.75   -13337.826    998.37652   -14336.203    50.400672    1.0922001 
   10900    241.80016   -387.81166    181563.75    -13377.36    994.64927    -14372.01    50.451116    1.0922001 
   11000    235.72476   -514.66982    181563.75   -13363.232    969.65802    -14332.89     50.58015    1.0922001 
   11100    246.72769   -257.50967    181563.75   -13298.674    1014.9187   -14313.593    50.323741    1.0922001 
   11200    243.69064   -334.47822    181563.75   -13344.589    1002.4258   -14347.015    50.951069    1.0922001 
   11300    231.06117   -484.36948    181563.75   -13380.569    950.47427   -14331.043    50.969551    1.0922001 
   11400    239.43875   -350.10654    181563.75   -13337.424    984.93557   -14322.359    51.319015    1.0922001 
   11500    248.33618    -344.7643    181563.75   -13272.095    1021.5353   -14293.631    51.485956    1.0922001 
   11600     246.9689   -182.11772    181563.75   -13307.825     1015.911   -14323.736    52.921069    1.0922001 
   11700    251.06349   -278.36595    181563.75   -13300.821    1032.7542   -14333.575    53.595667    1.0922001 
   11800    240.87783   -254.52406    181563.75   -13313.222    990.85524   -14304.077     53.73546    1.0922001 
   11900    235.64647   -226.60848    181563.75   -13346.796    969.33597   -14316.132    54.730495    1.0922001 
   12000    251.10003   -177.49175    181563.75   -13285.653    1032.9045   -14318.557     54.43367    1.0922001 
   12100    243.43802   -351.07716    181563.75   -13292.204    1001.3867    -14293.59    54.494193    1.0922001 
   12200    238.09226   -452.75753    181563.75   -13300.065    979.39678   -14279.462    54.923575    1.0922001 
   12300    240.00645   -299.80032    181563.75   -13343.686    987.27081   -14330.957    55.328995    1.0922001 
   12400    239.77838   -342.78767    181563.75   -13259.283    986.33266   -14245.616    55.871939    1.0922001 
   12500    242.03817   -382.66716    181563.75    -13271.05    995.62832   -14266.678    56.118693    1.0922001 
   12600    243.17503   -229.45368    181563.75   -13224.218    1000.3048   -14224.523    56.857746    1.0922001 
   12700    241.01907   -145.42582    181563.75   -13264.334    991.43625    -14255.77    57.299326    1.0922001 
   12800    248.71751   -218.25268    181563.75   -13302.722    1023.1039   -14325.826    57.831798    1.0922001 
   12900    249.91216   -296.71041    181563.75   -13328.476    1028.0181   -14356.494    57.828978    1.0922001 
   13000    239.43938   -408.12345    181563.75   -13365.313    984.93815   -14350.251    57.853372    1.0922001 
   13100     237.2821   -329.69743    181563.75   -13341.973    976.06416   -14318.037    58.229219    1.0922001 
   13200    237.35036   -330.97077    181563.75   -13323.192    976.34495   -14299.537    58.625094    1.0922001 
   13300    244.57037   -404.73308    181563.75   -13304.456    1006.0446     -14310.5    58.373001    1.0922001 
   13400    238.43933   -502.59194    181563.75   -13295.551    980.82444   -14276.375    58.553229    1.0922001 
   13500    241.15997   -540.20613    181563.75   -13305.121    992.01583   -14297.137    59.245439    1.0922001 
   13600     240.2743   -357.90399    181563.75   -13295.072    988.37264   -14283.444    59.592232    1.0922001 
   13700    232.40981   -213.38473    181563.75   -13350.127    956.02189   -14306.149    59.685945    1.0922001 
   13800    234.44136   -401.76992    181563.75   -13366.172    964.37873   -14330.551    60.142216    1.0922001 
   13900    231.35948   -342.18926    181563.75   -13339.099    951.70135     -14290.8    59.779924    1.0922001 
   14000    246.73043   -528.85174    181563.75   -13340.832      1014.93   -14355.762    59.503396    1.0922001 
   14100    241.74022   -422.33501    181563.75   -13344.651    994.40273   -14339.054    59.606838    1.0922001 
   14200    236.70114   -278.87336    181563.75   -13382.309    973.67437   -14355.984       60.354    1.0922001 
   14300    231.58687   -353.86496    181563.75   -13375.868    952.63672   -14328.505     61.20232    1.0922001 
   14400    231.22396    -171.1571    181563.75    -13403.26    951.14389   -14354.404    61.847981    1.0922001 
   14500    226.80364   -331.17335    181563.75   -13400.395    932.96083   -14333.355    62.118677    1.0922001 
   14600    231.85128   -410.93934    181563.75   -13379.915    953.72439    -14333.64    62.069669    1.0922001 
   14700     231.8756   -439.37285    181563.75   -13385.945    953.82442    -14339.77    62.599255    1.0922001 
   14800     239.7271   -486.56575    181563.75   -13348.337    986.12169   -14334.459     63.88293    1.0922001 
   14900     238.4241   -349.17759    181563.75    -13350.87    980.76179   -14331.632    64.257893    1.0922001 
   15000    236.69886   -339.79897    181563.75    -13350.12    973.66498   -14323.785    64.641242    1.0922001 
   15100    245.39468   -310.75236    181563.75   -13358.289    1009.4354   -14367.725    64.988021    1.0922001 
   15200    226.29139   -309.86117    181563.75   -13401.885    930.85368   -14332.739     65.04662    1.0922001 
   15300    226.67284   -517.36141    181563.75   -13399.366    932.42277   -14331.789    65.379981    1.0922001 
   15400    242.60504   -259.68114    181563.75   -13357.714    997.96017   -14355.674    65.297185    1.0922001 
   15500    235.31479    -380.1818    181563.75   -13357.631    967.97157   -14325.602    65.847159    1.0922001 
   15600    234.93529   -243.58787    181563.75   -13401.384     966.4105   -14367.795    66.477755    1.0922001 
   15700    239.69353   -357.59533    181563.75   -13387.819    985.98361   -14373.803    66.894054    1.0922001 
   15800    239.94784   -205.82703    181563.75   -13317.233    987.02974   -14304.263    67.531435    1.0922001 
   15900    230.27649    -287.9013    181563.75   -13335.849    947.24646   -14283.095    67.722455    1.0922001 
   16000    234.01833   -420.38466    181563.75   -13339.286     962.6386   -14301.924    68.211229    1.0922001 
   16100    247.59418   -513.58768    181563.75   -13301.434    1018.4831   -14319.918    68.383608    1.0922001 
   16200    239.09757   -380.35761    181563.75   -13276.829    983.53214   -14260.361    68.765918    1.0922001 
   16300    244.70123   -447.98345    181563.75   -13294.565    1006.5829   -14301.147    69.165991    1.0922001 
   16400    247.01824   -364.26852    181563.75   -13273.943    1016.1139   -14290.057    69.792753    1.0922001 
   16500     253.4375   -272.61743    181563.75   -13251.715    1042.5197   -14294.235     70.82725    1.0922001 
   16600    235.25492   -452.32873    181563.75   -13316.404    967.72534   -14284.129    71.648595    1.0922001 
   16700    241.92246   -295.98159    181563.75   -13336.286    995.15235   -14331.438    72.458206    1.0922001 
   16800    234.41295   -395.87869    181563.75   -13323.837    964.26186   -14288.099    73.058471    1.0922001 
   16900    238.18421   -322.30315    181563.75   -13351.201    979.77502   -14330.976    72.549213    1.0922001 
   17000    240.82742   -473.73627    181563.75   -13323.137    990.64788   -14313.785    71.842213    1.0922001 
   17100    236.27455   -405.46764    181563.75   -13321.707    971.91958   -14293.626    71.870848    1.0922001 
   17200    236.45918   -364.98188    181563.75   -13316.409    972.67907   -14289.088    72.262637    1.0922001 
   17300     238.9733   -211.89349    181563.75   -13284.778    983.02094   -14267.799    72.709701    1.0922001 
   17400    227.26658   -291.19502    181563.75   -13267.972    934.86514   -14202.837    72.900691    1.0922001 
   17500    235.85688   -365.25949    181563.75   -13283.579    970.20149   -14253.781    73.103888    1.0922001 
   17600    247.41826   -319.41194    181563.75    -13235.02    1017.7594    -14252.78      73.5482    1.0922001 
   17700    244.71556   -398.20072    181563.75   -13253.036    1006.6418   -14259.678    73.498739    1.0922001 
   17800    242.58341   -468.31426    181563.75   -13258.912    997.87117   -14256.783    73.980108    1.0922001 
   17900    241.18534   -276.97077    181563.75   -13284.802    992.12022   -14276.922    74.508946    1.0922001 
   18000    246.79969   -326.82627    181563.75     -13298.3    1015.2149   -14313.515    75.291407    1.0922001 
   18100    242.15592     -300.062    181563.75   -13289.615     996.1127   -14285.727     75.62376    1.0922001 
   18200    249.02815   -331.32657    181563.75   -13295.299    1024.3817    -14319.68      75.7427    1.0922001 
   18300    241.70047   -387.97186    181563.75    -13311.57     994.2392   -14305.809    75.463608    1.0922001 
   18400    239.04843   -331.33892    181563.75   -13301.739    983.32999   -14285.069    75.209249    1.0922001 
   18500    241.72978   -389.60037    181563.75   -13313.876    994.35978   -14308.235    75.909598    1.0922001 
   18600    238.95472   -476.04541    181563.75   -13288.694     982.9445   -14271.639    75.841656    1.0922001 
   18700    242.40631   -284.99504    181563.75   -13286.011     997.1427   -14283.154    76.883696    1.0922001 
   18800    243.95803   -307.42741    181563.75   -13300.228    1003.5257   -14303.754    77.381764    1.0922001 
   18900     246.1306    -231.7936    181563.75   -13297.072    1012.4626   -14309.534    78.089015    1.0922001 
   19000     235.7405    -290.8076    181563.75   -13302.644    969.72276   -14272.367    77.623554    1.0922001 
   19100    242.78756   -349.75086    181563.75   -13284.457    998.71098   -14283.168    77.734863    1.0922001 
   19200    236.08384   -365.08706    181563.75   -13272.814    971.13507   -14243.949    77.523238    1.0922001 
   19300    241.29199    -262.4495    181563.75   -13291.397     992.5589   -14283.956    78.107618    1.0922001 
   19400     244.8816   -339.20435    181563.75   -13255.718    1007.3248   -14263.043    78.804287    1.0922001 
   19500    239.36455   -348.58981    181563.75   -13301.197    984.63035   -14285.828    79.600943    1.0922001 
   19600    238.79347   -328.29903    181563.75   -13316.342     982.2812   -14298.623    80.951773    1.0922001 
   19700    243.09766   -344.20779    181563.75    -13309.96    999.98659   -14309.946    80.975046    1.0922001 
   19800    238.67722   -462.01131    181563.75   -13309.657    981.80302   -14291.461    80.805853    1.0922001 
   19900    235.80911   -300.98857    181563.75   -13320.925    970.00499    -14290.93    80.469479    1.0922001 
   20000    233.44042   -360.14678    181563.75   -13339.165    960.26133   -14299.426    80.666063    1.0922001 
   20100    243.04672   -430.13577    181563.75   -13296.826    999.77701   -14296.603    81.081779    1.0922001 
   20200    236.36951   -603.42539    181563.75   -13345.157    972.31021   -14317.467    81.687911    1.0922001 
   20300    239.86718   -285.11204    181563.75   -13361.412    986.69792    -14348.11    82.148995    1.0922001 
   20400    236.65146   -312.69706    181563.75   -13405.853    973.46999   -14379.323    82.345682    1.0922001 
   20500    238.31227   -470.76779    181563.75   -13404.628    980.30177    -14384.93    83.125023    1.0922001 
   20600    234.68379   -289.67278    181563.75    -13373.74    965.37596   -14339.116    83.568934    1.0922001 
   20700    234.52111   -329.94758    181563.75   -13386.511    964.70677   -14351.218    84.143146    1.0922001 
   20800    236.22445   -412.12266    181563.75   -13377.088    971.71349   -14348.802    84.312386    1.0922001 
   20900    243.62977   -374.19236    181563.75   -13352.486    1002.1754   -14354.661    84.461375    1.0922001 
   21000    237.72168   -369.41102    181563.75   -13345.479    977.87236   -14323.351      85.1558    1.0922001 
   21100    240.61062   -422.73788    181563.75   -13328.266     989.7561   -14318.022    86.207099    1.0922001 
   21200    245.61165   -260.84638    181563.75   -13341.783    1010.3279   -14352.111    85.963607    1.0922001 
   21300    243.41455   -161.68822    181563.75   -13348.935    1001.2901   -14350.225     86.35746    1.0922001 
   21400    244.47771   -276.47622    181563.75   -13393.809    1005.6634   -14399.473    86.713923    1.0922001 
   21500    240.55835   -327.82821    181563.75   -13391.493    989.54106   -14381.034    86.541083    1.0922001 
   21600     243.0263   -277.90325    181563.75   -13360.986    999.69304   -14360.679    86.935398    1.0922001 
   21700    242.18896   -285.70128    181563.75   -13365.486    996.24863   -14361.734     87.31227    1.0922001 
   21800    239.93765   -328.16221    181563.75   -13346.405    986.98782   -14333.392    88.034028    1.0922001 
   21900    241.73716   -313.82325    181563.75   -13315.633    994.39012   -14310.023    89.162832    1.0922001 
   22000     237.6541   -318.46686    181563.75   -13343.891    977.59438   -14321.485    90.186763    1.0922001 
   22100    239.69708   -375.13208    181563.75   -13326.139    985.99822   -14312.137    91.166135    1.0922001 
   22200    245.47871    -394.1779    181563.75    -13331.88     1009.781   -14341.661    91.876322    1.0922001 
   22300    248.92501   -309.04115    181563.75   -13330.704    1023.9575   -14354.662    92.384251    1.0922001 
   22400    240.17367   -353.95747    181563.75   -13346.808     987.9587   -14334.767    92.521842    1.0922001 
   22500    238.78353   -272.12664    181563.75   -13372.794    982.24031   -14355.034    93.197688    1.0922001 
   22600    239.78492   -338.75383    181563.75   -13392.667    986.35956   -14379.026    93.505848    1.0922001 
   22700    240.87848   -353.80986    181563.75   -13365.451    990.85794   -14356.309    94.139063    1.0922001 
   22800    244.96356   -423.58131    181563.75   -13344.784     1007.662   -14352.446    93.996947    1.0922001 
   22900     240.6064   -410.55759    181563.75   -13330.867    989.73874   -14320.606    94.462855    1.0922001 
   23000    238.57216   -251.52952    181563.75   -13359.924    981.37085   -14341.295    94.934104    1.0922001 
   23100    232.98549   -337.12337    181563.75   -13390.944    958.38997   -14349.334    95.094442    1.0922001 
   23200    242.38063   -422.41828    181563.75   -13372.171    997.03705   -14369.208    94.993152    1.0922001 
   23300    241.21017   -489.57724    181563.75   -13358.381    992.22236   -14350.603    95.531946    1.0922001 
   23400    240.60547   -585.21425    181563.75   -13324.101    989.73492   -14313.835    95.828951    1.0922001 
   23500     237.2644   -395.26766    181563.75   -13353.869    975.99135    -14329.86    96.407747    1.0922001 
   23600    239.66838   -364.96132    181563.75   -13362.048    985.88016   -14347.928    96.447797    1.0922001 
   23700    235.52619    -515.0714    181563.75   -13350.555    968.84119   -14319.397    96.001718    1.0922001 
   23800    231.53643   -428.33304    181563.75    -13387.34    952.42924    -14339.77    95.110917    1.0922001 
   23900    235.52897   -505.60787    181563.75   -13394.613    968.85263   -14363.466    94.929482    1.0922001 
   24000    239.06134   -483.47778    181563.75   -13347.479    983.38308   -14330.862    94.258926    1.0922001 
   24100    234.41813   -531.94313    181563.75   -13349.039    964.28315   -14313.322    94.291426    1.0922001 
   24200     242.6402   -268.63181    181563.75   -13329.446    998.10478    -14327.55    94.506927    1.0922001 
   24300    241.20963   -201.97801    181563.75   -13302.981    992.22013   -14295.201    95.225126    1.0922001 
   24400    244.20979   -260.71195    181563.75   -13309.198    1004.5614   -14313.759    95.425932    1.0922001 
   24500    239.56823   -401.24696    181563.75   -13344.427    985.46819   -14329.896    95.334749    1.0922001 
   24600    237.91265   -364.61791    181563.75   -13339.679    978.65792   -14318.337    94.728326    1.0922001 
   24700     243.3372   -367.34358    181563.75   -13330.888    1000.9719    -14331.86    94.230774    1.0922001 
   24800    242.10849    -475.1338    181563.75   -13346.336     995.9176   -14342.254    94.159353    1.0922001 
   24900     238.4226   -327.71084    181563.75   -13339.738    980.75561   -14320.494    94.889751    1.0922001 
   25000    231.45171   -173.32493    181563.75   -13353.771    952.08073   -14305.852    95.878346    1.0922001 
   25100    247.54281   -185.43019    181563.75   -13354.603    1018.2718   -14372.875    96.273882    1.0922001 
   25200     234.1598   -342.70873    181563.75   -13349.723     963.2205   -14312.944    96.332284    1.0922001 
   25300    246.89919   -356.65261    181563.75   -13320.469    1015.6242   -14336.093    96.364273    1.0922001 
   25400     241.0126   -349.49882    181563.75   -13345.457    991.40965   -14336.867    96.546794    1.0922001 
   25500     238.3075   -448.91857    181563.75   -13346.645    980.28218   -14326.927    97.845035    1.0922001 
   25600    240.36168   -509.12166    181563.75   -13322.596    988.73205   -14311.328    98.308187    1.0922001 
   25700    250.19926      -223.59    181563.75   -13308.729    1029.1991   -14337.928    98.716583    1.0922001 
   25800    246.38375    -395.4268    181563.75   -13346.785    1013.5039   -14360.289    98.116854    1.0922001 
   25900    239.70222   -347.75328    181563.75   -13377.769    986.01938   -14363.788    98.082974    1.0922001 
   26000     235.0265   -352.27346    181563.75   -13379.797     966.7857   -14346.583    98.747965    1.0922001 
   26100    239.14204   -494.71256    181563.75   -13351.753    983.71504   -14335.468    98.875511    1.0922001 
   26200    236.25301   -471.76766    181563.75   -13349.344    971.83097   -14321.175    98.978427    1.0922001 
   26300    243.01189   -376.36678    181563.75   -13400.179    999.63375   -14399.813    99.556536    1.0922001 
   26400    228.08026   -350.41423    181563.75   -13410.841    938.21222   -14349.053    99.973679    1.0922001 
   26500    239.43468   -144.61572    181563.75   -13395.062    984.91882   -14379.981    100.43051    1.0922001 
   26600    240.12719   -397.75358    181563.75   -13400.553    987.76751    -14388.32     100.9609    1.0922001 
   26700    239.32668   -290.27667    181563.75   -13382.906    984.47456    -14367.38    101.23522    1.0922001 
   26800    241.78602   -445.98932    181563.75   -13343.579    994.59112    -14338.17    101.73177    1.0922001 
   26900     234.0525    -435.2665    181563.75   -13352.366    962.77916   -14315.145    101.52395    1.0922001 
   27000    236.42453   -254.72977    181563.75   -13343.091    972.53654   -14315.628    101.08867    1.0922001 
   27100    243.34819   -434.21275    181563.75   -13275.654    1001.0171   -14276.671    101.58679    1.0922001 
   27200     249.2807   -386.70205    181563.75   -13282.018    1025.4206   -14307.439    102.39812    1.0922001 
   27300    234.77859   -289.25631    181563.75   -13345.357    965.76592   -14311.123    103.60146    1.0922001 
   27400    240.12473   -343.98271    181563.75    -13298.96    987.75735   -14286.718    103.94644    1.0922001 
   27500    243.99466   -199.96713    181563.75   -13324.661    1003.6764   -14328.337    104.18688    1.0922001 
   27600    232.65211   -402.45441    181563.75   -13333.021    957.01863    -14290.04    104.19525    1.0922001 
   27700    242.65912   -386.20033    181563.75   -13350.462    998.18264   -14348.645    104.33667    1.0922001 
   27800    235.12026   -273.49354    181563.75   -13413.265     967.1714   -14380.437    105.12276    1.0922001 
   27900    236.22838   -267.12343    181563.75   -13383.226    971.72966   -14354.956    105.22409    1.0922001 
   28000     234.2442    -394.1308    181563.75   -13373.759    963.56771   -14337.326    105.52239    1.0922001 
   28100     234.5728   -322.91652    181563.75   -13339.191    964.91939    -14304.11    106.09707    1.0922001 
   28200    234.36985   -361.48238    181563.75   -13315.327    964.08455   -14279.412    106.08051    1.0922001 
   28300    226.02544   -359.50343    181563.75   -13338.829    929.75969   -14268.589    106.06482    1.0922001 
   28400    240.85868   -467.24626    181563.75   -13317.052    990.77647   -14307.829    106.35735    1.0922001 
   28500    243.56721   -288.50386    181563.75   -13285.439    1001.9181   -14287.357    105.47984    1.0922001 
   28600    236.90931   -421.48574    181563.75   -13331.067    974.53069   -14305.597    105.56697    1.0922001 
   28700    232.94119   -317.91902    181563.75    -13357.13    958.20773   -14315.338    105.98599    1.0922001 
   28800    232.43023   -496.26237    181563.75   -13398.105    956.10591   -14354.211     106.0006    1.0922001 
   28900    233.82478    -194.5487    181563.75   -13383.595    961.84239   -14345.437    105.56737    1.0922001 
   29000    241.86073   -369.49806    181563.75   -13370.341    994.89843   -14365.239    104.96479    1.0922001 
   29100    237.33955   -329.23976    181563.75   -13382.169    976.30049   -14358.469    105.64594    1.0922001 
   29200    233.05419   -485.30051    181563.75   -13370.337    958.67259    -14329.01    106.09556    1.0922001 
   29300    236.63703   -428.26037    181563.75   -13351.302    973.41065   -14324.712    106.50988    1.0922001 
   29400    238.69693   -412.68759    181563.75   -13357.009    981.88407   -14338.893      107.323    1.0922001 
   29500    241.84332   -279.76002    181563.75   -13353.204    994.82681   -14348.031    107.63714    1.0922001 
   29600    240.76699    -173.3559    181563.75   -13360.797    990.39932   -14351.196    107.57084    1.0922001 
   29700    240.74049   -249.60587    181563.75    -13305.48     990.2903   -14295.771    107.67878    1.0922001 
   29800    241.74068   -491.84336    181563.75    -13332.64     994.4046   -14327.044    107.41792    1.0922001 
   29900    238.59828   -454.85492    181563.75   -13340.114    981.47831   -14321.592    107.54362    1.0922001 
   30000    242.46588    -441.5037    181563.75   -13337.643    997.38771   -14335.031    108.10264    1.0922001 
   30100    237.14637   -394.76128    181563.75    -13345.64    975.50583   -14321.146    108.48202    1.0922001 
   30200    235.09225   -312.91933    181563.75   -13361.561    967.05619   -14328.617    109.18157    1.0922001 
   30300    237.18783   -401.50817    181563.75   -13372.913    975.67638   -14348.589    109.23707    1.0922001 
   30400    232.81587   -446.41769    181563.75   -13408.213    957.69225   -14365.905    109.68464    1.0922001 
   30500    239.25889   -480.03426    181563.75   -13398.066    984.19572   -14382.262    110.58843    1.0922001 
   30600    237.55461    -208.2146    181563.75   -13412.665    977.18514    -14389.85    110.80814    1.0922001 
   30700    239.94575     -304.079    181563.75   -13320.956    987.02112   -14307.977    110.48603    1.0922001 
   30800    242.68389    -420.8858    181563.75   -13364.533    998.28451   -14362.818    109.91015    1.0922001 
   30900    239.85571   -389.52999    181563.75   -13343.905    986.65077   -14330.556     109.8402    1.0922001 
   31000    242.81344   -268.00078    181563.75   -13367.539    998.81744   -14366.357    110.15416    1.0922001 
   31100    235.92329    -338.0876    181563.75   -13342.893    970.47468   -14313.368    110.18249    1.0922001 
   31200    241.07683   -316.54857    181563.75    -13341.69    991.67385   -14333.364    110.61906    1.0922001 
   31300    243.63442   -368.52366    181563.75   -13319.153    1002.1946   -14321.347    110.74308    1.0922001 
   31400    240.56216   -206.52186    181563.75   -13344.666    989.55675   -14334.223    110.81368    1.0922001 
   31500    243.69869   -300.91441    181563.75   -13336.476    1002.4589   -14338.935    110.49726    1.0922001 
   31600    244.70402   -195.15219    181563.75   -13309.641    1006.5944   -14316.236     110.9861    1.0922001 
   31700    237.82324   -490.30455    181563.75   -13304.497    978.29016   -14282.787    111.79299    1.0922001 
   31800    233.01567   -279.50481    181563.75   -13340.315    958.51412   -14298.829    112.56841    1.0922001 
   31900    244.90794   -410.01552    181563.75   -13302.945    1007.4332   -14310.378    112.51535    1.0922001 
   32000    239.78774   -270.25339    181563.75    -13317.44    986.37117   -14303.811    113.10699    1.0922001 
   32100    236.28486   -176.40407    181563.75   -13344.471    971.96201   -14316.433    113.24423    1.0922001 
   32200     238.7114   -262.49794    181563.75   -13367.013    981.94361   -14348.957    113.95682    1.0922001 
   32300    232.99917   -209.77629    181563.75   -13394.361    958.44624   -14352.807    114.17138    1.0922001 
   32400     235.7627   -322.79042    181563.75   -13369.443    969.81408   -14339.257    114.64584    1.0922001 
   32500    241.60904    -378.2682    181563.75   -13339.008    993.86309   -14332.871    115.40149    1.0922001 
   32600    238.10226   -133.43918    181563.75    -13336.14    979.43791   -14315.578    116.64473    1.0922001 
   32700    241.53723   -433.79623    181563.75   -13369.352     993.5677   -14362.919      117.141    1.0922001 
   32800    236.24135   -335.98848    181563.75   -13363.666    971.78299   -14335.449    117.81902    1.0922001 
   32900    235.55065   -466.17606    181563.75   -13361.874    968.94183   -14330.816    117.80499    1.0922001 
   33000    241.10735   -270.17757    181563.75   -13335.372    991.79938   -14327.171      118.329    1.0922001 
   33100     235.4093   -296.64151    181563.75   -13348.404    968.36037   -14316.764     118.2988    1.0922001 
   33200    243.91911   -307.88071    181563.75    -13349.35    1003.3656   -14352.716    118.68456    1.0922001 
   33300    233.13424    -291.0819    181563.75   -13355.207    959.00185   -14314.208    119.07617    1.0922001 
   33400    239.96864   -275.27566    181563.75   -13331.053     987.1153   -14318.168    119.43678    1.0922001 
   33500    246.41787   -232.51848    181563.75   -13315.971    1013.6443   -14329.616     120.1371    1.0922001 
   33600     230.9482   -305.43002    181563.75   -13362.349    950.00956   -14312.359    120.31168    1.0922001 
   33700    240.23419   -335.82138    181563.75   -13306.556    988.20765   -14294.764    119.72214    1.0922001 
   33800     238.6005   -148.56064    181563.75   -13319.901     981.4874   -14301.388    119.40323    1.0922001 
   33900    241.67686    -232.0218    181563.75   -13300.781    994.14207   -14294.923    119.85986    1.0922001 
   34000    240.61796   -274.76304    181563.75   -13325.532     989.7863   -14315.318    120.04573    1.0922001 
   34100    241.24845   -300.67293    181563.75   -13360.933    992.37982   -14353.312    120.70538    1.0922001 
   34200    236.03471   -463.26747    181563.75   -13363.242    970.93299   -14334.175      121.377    1.0922001 
   34300    230.75928   -345.49707    181563.75   -13392.152    949.23243   -14341.384    121.86611    1.0922001 
   34400    234.35263   -144.38928    181563.75   -13385.085    964.01374   -14349.099    123.36267    1.0922001 
   34500    237.10805   -280.33388    181563.75   -13366.891     975.3482   -14342.239    123.28214    1.0922001 
   34600    244.37298   -353.42152    181563.75    -13352.24    1005.2326   -14357.472     122.9644    1.0922001 
   34700    236.85744   -421.10015    181563.75   -13331.892    974.31731   -14306.209    122.85666    1.0922001 
   34800    234.78819   -367.32486    181563.75   -13322.362    965.80543   -14288.167    123.34633    1.0922001 
   34900    238.03802   -315.14818    181563.75   -13324.497    979.17364    -14303.67     124.1385    1.0922001 
   35000    240.28513   -355.32713    181563.75   -13311.404    988.41716   -14299.821     124.4232    1.0922001 
   35100     249.1675   -233.27405    181563.75   -13291.322     1024.955   -14316.277    125.11035    1.0922001 
   35200    238.07958   -379.72878    181563.75   -13298.937    979.34462   -14278.281    125.69838    1.0922001 
   35300    244.10952   -450.85251    181563.75   -13234.804    1004.1489   -14238.953    125.62614    1.0922001 
   35400    246.91699    -441.9168    181563.75   -13248.367    1015.6974   -14264.064    125.23408    1.0922001 
   35500    240.02075   -339.00404    181563.75   -13290.701    987.32965   -14278.031    125.09185    1.0922001 
   35600    244.77009    -352.5045    181563.75   -13319.145    1006.8661   -14326.011    124.98319    1.0922001 
   35700    243.73629   -277.06656    181563.75   -13332.549    1002.6136   -14335.162    125.28869    1.0922001 
   35800    247.45526   -126.21738    181563.75   -13293.881    1017.9117   -14311.792    125.63775    1.0922001 
   35900    238.30451   -399.89044    181563.75   -13354.567    980.26986   -14334.837    125.24295    1.0922001 
   36000    229.95135   -379.29803    181563.75   -13356.999    945.90898   -14302.908    125.72982    1.0922001 
   36100    244.21425    -388.0166    181563.75   -13326.047    1004.5797   -14330.627    125.85505    1.0922001 
   36200    241.11838   -379.41422    181563.75   -13353.297    991.84477   -14345.142    125.79904    1.0922001 
   36300    241.26126   -439.28473    181563.75   -13320.135     992.4325   -14312.568    125.55407    1.0922001 
   36400    241.25929   -336.51024    181563.75    -13313.52    992.42442   -14305.944    125.60342    1.0922001 
   36500    235.13145   -269.81102    181563.75   -13338.394    967.21742   -14305.612    125.95266    1.0922001 
   36600    233.28982   -343.48253    181563.75   -13360.206    959.64186   -14319.847    126.01028    1.0922001 
   36700    232.57487    -322.2343    181563.75   -13377.757    956.70088   -14334.457    126.43987    1.0922001 
   36800    231.10121   -424.61889    181563.75   -13386.631    950.63894    -14337.27    126.35064    1.0922001 
   36900    230.60704   -297.15378    181563.75     -13356.3    948.60618   -14304.906    126.18417    1.0922001 
   37000    231.77965   -251.81596    181563.75   -13339.779    953.42974   -14293.208    125.94365    1.0922001 
   37100     234.4589   -257.69738    181563.75   -13398.044    964.45089   -14362.495     125.8818    1.0922001 
   37200     243.6405   -298.48181    181563.75   -13395.045    1002.2196   -14397.264    125.08111    1.0922001 
   37300    230.63314    -307.0397    181563.75   -13365.245    948.71353   -14313.959    124.75429    1.0922001 
   37400    240.74801   -308.10446    181563.75    -13322.74    990.32123   -14313.061    125.65648    1.0922001 
   37500    233.81383   -440.13851    181563.75   -13305.729    961.79736   -14267.526    125.73183    1.0922001 
   37600    238.01465    -195.0793    181563.75   -13280.617     979.0775   -14259.695    126.09222    1.0922001 
   37700    238.95205   -324.48516    181563.75    -13297.53    982.93351   -14280.464    126.35937    1.0922001 
   37800    236.89729   -354.87059    181563.75   -13323.319    974.48122     -14297.8     125.7268    1.0922001 
   37900    243.68884   -461.56278    181563.75    -13286.81    1002.4184   -14289.228    125.62298    1.0922001 
   38000    242.79371    -263.6646    181563.75   -13307.015    998.73625   -14305.751    126.13001    1.0922001 
   38100    235.07924   -437.26463    181563.75   -13317.572    967.00266   -14284.575    126.05541    1.0922001 
   38200     241.5802   -413.60958    181563.75   -13284.692    993.74448   -14278.436    126.95857    1.0922001 
   38300     239.5442   -501.63701    181563.75   -13322.734    985.36934   -14308.104     127.2301    1.0922001 
   38400    242.88628   -259.67921    181563.75   -13285.938    999.11705   -14285.055    127.74939    1.0922001 
   38500    236.85338   -366.52927    181563.75   -13318.363    974.30059   -14292.664    127.92241    1.0922001 
   38600    231.40532   -433.62849    181563.75   -13298.944    951.88993   -14250.834    128.44074    1.0922001 
   38700    235.63205   -436.18677    181563.75   -13293.204    969.27664   -14262.481    128.58422    1.0922001 
   38800     237.4308   -277.90554    181563.75   -13293.381    976.67583   -14270.057     129.5554    1.0922001 
   38900    242.28792   -270.41139    181563.75   -13283.482    996.65568   -14280.138    129.37061    1.0922001 
   39000    245.70757   -370.97107    181563.75   -13267.881    1010.7225   -14278.603    129.58823    1.0922001 
   39100    230.44416   -494.55773    181563.75   -13291.556    947.93619   -14239.492    129.39866    1.0922001 
   39200    239.08156    -396.9314    181563.75   -13323.407    983.46625   -14306.873    129.66796    1.0922001 
   39300    240.97107    -296.4146    181563.75    -13302.52    991.23882   -14293.758    129.69032    1.0922001 
   39400    242.00098    -433.0121    181563.75   -13298.999    995.47535   -14294.474    130.43139    1.0922001 
   39500    234.25931   -321.81841    181563.75    -13288.55    963.62984    -14252.18    130.84769    1.0922001 
   39600    239.58744   -416.51164    181563.75   -13308.303     985.5472    -14293.85    130.78742    1.0922001 
   39700    240.44261   -450.98666    181563.75   -13252.792    989.06499   -14241.857    131.28364    1.0922001 
   39800    246.20174   -284.60667    181563.75   -13216.213    1012.7552   -14228.968    131.63443    1.0922001 
   39900    238.66494   -438.05213    181563.75   -13276.239    981.75248   -14257.992    131.61155    1.0922001 
   40000    240.76185   -396.58908    181563.75   -13301.946    990.37819   -14292.324     131.9288    1.0922001 
   40100    233.90484   -351.85889    181563.75   -13330.952    962.17173   -14293.124    133.02312    1.0922001 
   40200    234.56739   -379.26679    181563.75   -13360.186    964.89714   -14325.083    133.59067    1.0922001 
   40300    238.75246   -335.80662    181563.75   -13309.199    982.11252   -14291.311    134.01091    1.0922001 
   40400    242.61797   -416.46416    181563.75   -13281.987    998.01337       -14280    134.44689    1.0922001 
   40500    238.33665    -366.0605    181563.75   -13304.965    980.40205   -14285.367    133.99419    1.0922001 
   40600    227.01478   -285.40637    181563.75   -13388.998    933.82936   -14322.828     133.5524    1.0922001 
   40700      228.971   -331.54681    181563.75   -13356.386    941.87632   -14298.262    133.50503    1.0922001 
   40800    239.17967   -553.60537    181563.75   -13325.777    983.86985   -14309.647    133.69301    1.0922001 
   40900    239.21062   -388.81869    181563.75   -13297.394    983.99715   -14281.391    134.40059    1.0922001 
   41000    239.54361   -304.06613    181563.75   -13292.078    985.36692   -14277.445    135.87177    1.0922001 
   41100    234.82466   -238.49163    181563.75   -13308.995    965.95542   -14274.951    136.27266    1.0922001 
   41200    238.47243    -231.7438    181563.75   -13296.225    980.96061   -14277.185    136.60562    1.0922001 
   41300    241.09583   -420.23738    181563.75   -13303.441    991.75201   -14295.193    136.29757    1.0922001 
   41400    244.87933   -425.01694    181563.75   -13304.512    1007.3155   -14311.827    136.44585    1.0922001 
   41500    241.36527   -412.41053    181563.75   -13297.293    992.86033   -14290.154    136.78252    1.0922001 
   41600    240.39635   -484.85136    181563.75   -13277.826    988.87469   -14266.701    137.54469    1.0922001 
   41700    242.93717   -329.45388    181563.75   -13293.346    999.32638   -14292.672    137.95738    1.0922001 
   41800    239.41706   -228.70766    181563.75   -13311.338    984.84636   -14296.184    137.99929    1.0922001 
   41900    249.34872    -334.8457    181563.75   -13286.158    1025.7004   -14311.859    138.05838    1.0922001 
   42000    247.27465   -489.35794    181563.75   -13314.666    1017.1687   -14331.834    138.43791    1.0922001 
   42100    242.93645    -421.1734    181563.75   -13269.696    999.32344    -14269.02    139.24427    1.0922001 
   42200    236.98332   -368.88262    181563.75    -13292.56    974.83514   -14267.395    140.07062    1.0922001 
   42300    237.21229   -367.98996    181563.75   -13342.598    975.77699   -14318.375    139.43823    1.0922001 
   42400    230.70415   -233.65501    181563.75   -13312.369    949.00564   -14261.374    139.05859    1.0922001 
   42500    239.56926     -367.289    181563.75   -13283.442    985.47245   -14268.914    139.08593    1.0922001 
   42600    238.03968   -411.23476    181563.75   -13296.562    979.18048   -14275.743        138.9    1.0922001 
   42700    246.97334   -292.41143    181563.75   -13240.205    1015.9292   -14256.134    139.43781    1.0922001 
   42800    243.87821   -359.10443    181563.75   -13264.049    1003.1974   -14267.246    138.97153    1.0922001 
   42900    249.57289    -318.0244    181563.75   -13223.965    1026.6225   -14250.588    139.82362    1.0922001 
   43000    248.33631   -163.10519    181563.75   -13254.145    1021.5359   -14275.681    140.91326    1.0922001 
   43100    242.54636   -374.56787    181563.75   -13237.051     997.7188    -14234.77     141.5152    1.0922001 
   43200    246.30984   -301.35634    181563.75   -13270.793    1013.1999   -14283.993    141.11725    1.0922001 
   43300     247.5205   -421.17864    181563.75   -13274.355      1018.18   -14292.535    141.75453    1.0922001 
   43400    240.84393   -356.65163    181563.75   -13307.403    990.71581   -14298.118    142.37468    1.0922001 
   43500    245.16471   -355.06762    181563.75   -13304.698    1008.4894   -14313.187    142.97615    1.0922001 
   43600      236.461   -351.23404    181563.75   -13339.485    972.68657   -14312.171    143.40162    1.0922001 
   43700    237.50328   -433.18511    181563.75   -13308.221    976.97398   -14285.195    143.55021    1.0922001 
   43800    245.29912   -397.62054    181563.75   -13305.972    1009.0423   -14315.014    144.03112    1.0922001 
   43900    228.10242    -352.9246    181563.75   -13340.535    938.30339   -14278.838    144.31844    1.0922001 
   44000    235.79398   -421.23011    181563.75   -13335.885    969.94276   -14305.827    145.06543    1.0922001 
   44100    239.29514   -226.60361    181563.75   -13305.266    984.34484   -14289.611    145.14378    1.0922001 
   44200     235.7968   -321.12803    181563.75   -13291.169    969.95434   -14261.123    145.31298    1.0922001 
   44300    236.29665   -539.99967    181563.75   -13260.102    972.01048   -14232.113      145.569    1.0922001 
   44400    237.57326   -333.08463    181563.75   -13217.742    977.26185   -14195.004    146.57846    1.0922001 
   44500     242.9689   -496.73472    181563.75   -13252.287     999.4569   -14251.744    147.49603    1.0922001 
   44600    239.03121    -264.2417    181563.75   -13259.099    983.25915   -14242.358    147.48371    1.0922001 
   44700    243.75517   -454.33086    181563.75   -13287.782    1002.6912   -14290.473    148.34539    1.0922001 
   44800     245.9981   -352.89425    181563.75   -13295.718    1011.9176   -14307.636    148.53415    1.0922001 
   44900    241.40759   -407.99392    181563.75   -13321.384    993.03442   -14314.419    149.21049    1.0922001 
   45000    247.81196   -396.56862    181563.75   -13312.143    1019.3789   -14331.522    148.53122    1.0922001 
   45100    235.36831   -298.62384    181563.75   -13315.826    968.19174   -14284.018    149.34203    1.0922001 
   45200    239.15132   -354.76978    181563.75    -13237.62    983.75322   -14221.373    149.39188    1.0922001 
   45300     246.0153   -426.27081    181563.75   -13223.379    1011.9883   -14235.368    149.71538    1.0922001 
   45400    245.37342   -299.77955    181563.75   -13213.992    1009.3479    -14223.34    150.59314    1.0922001 
   45500    245.92894    -303.4939    181563.75   -13237.844    1011.6331   -14249.477    151.37661    1.0922001 
   45600    249.77803   -260.37955    181563.75   -13234.683    1027.4664    -14262.15     152.0012    1.0922001 
   45700     241.0672   -350.02723    181563.75   -13248.945    991.63425   -14240.579    152.11659    1.0922001 
   45800    240.20268   -265.09745    181563.75   -13287.138      988.078   -14275.216    151.30711    1.0922001 
   45900    243.41529   -368.80486    181563.75   -13268.437    1001.2931    -14269.73    151.85758    1.0922001 
   46000     238.9205   -364.51666    181563.75   -13277.283    982.80376   -14260.087    152.99149    1.0922001 
   46100    244.78408   -349.27317    181563.75    -13296.13    1006.9237   -14303.053    153.15938    1.0922001 
   46200    243.99968   -341.18678    181563.75   -13269.409    1003.6971   -14273.106    153.30098    1.0922001 
   46300    250.45232   -329.60157    181563.75   -13257.242    1030.2401   -14287.482    153.94662    1.0922001 
   46400    240.31793   -527.14405    181563.75   -13240.022    988.55211   -14228.574    154.35143    1.0922001 
   46500    238.90258   -278.03182    181563.75   -13319.283    982.73003   -14302.013    155.25706    1.0922001 
   46600    242.34908   -271.05723    181563.75   -13294.677    996.90726   -14291.585    155.59564    1.0922001 
   46700    234.80395   -300.81109    181563.75   -13284.625    965.87024   -14250.495    155.82026    1.0922001 
   46800    250.50555   -242.11095    181563.75   -13252.282    1030.4591   -14282.741    155.74993    1.0922001 
   46900    246.81366    -334.6217    181563.75   -13207.368    1015.2724   -14222.641    155.81905    1.0922001 
   47000    242.73025    -372.9783    181563.75    -13204.69    998.47521   -14203.165    155.62729    1.0922001 
   47100    236.56635   -324.60539    181563.75   -13258.204    973.11989   -14231.324    156.03675    1.0922001 
   47200    244.60459   -270.52224    181563.75   -13262.461    1006.1854   -14268.647    156.24994    1.0922001 
   47300    236.65193   -381.90671    181563.75   -13284.466    973.47195   -14257.938     155.9121    1.0922001 
   47400    243.11622   -220.17624    181563.75   -13274.615    1000.0629   -14274.678    156.54002    1.0922001 
   47500    235.75376   -211.07195    181563.75   -13308.652    969.77729   -14278.429    156.83757    1.0922001 
   47600    244.50464   -375.75017    181563.75   -13277.358    1005.7742   -14283.132    157.01421    1.0922001 
   47700    231.67064   -371.82226    181563.75   -13251.896     952.9813   -14204.877    157.80593    1.0922001 
   47800    240.19074   -221.07096    181563.75   -13265.165    988.02888   -14253.194    158.62771    1.0922001 
   47900    238.05706   -236.06143    181563.75   -13268.825    979.25198   -14248.077    159.11272    1.0922001 
   48000    239.37829   -441.03422    181563.75   -13273.187    984.68689   -14257.874    159.58091    1.0922001 
   48100    236.04667    -390.6875    181563.75       -13260    970.98219   -14230.983    159.84051    1.0922001 
   48200    238.91507   -224.21063    181563.75   -13266.208     982.7814   -14248.989     161.1108    1.0922001 
   48300    237.40847    -246.2833    181563.75   -13305.843      976.584   -14282.427    161.74661    1.0922001 
   48400    231.99029   -385.77751    181563.75   -13278.741    954.29619   -14233.037    161.75279    1.0922001 
   48500    240.65642   -234.27835    181563.75   -13273.467    989.94449   -14263.411     162.0991    1.0922001 
   48600    246.72495   -283.56337    181563.75   -13254.269    1014.9075   -14269.176    163.68149    1.0922001 
   48700    235.07155   -424.86949    181563.75   -13251.199    966.97101    -14218.17     163.9835    1.0922001 
   48800      245.966   -541.93459    181563.75   -13256.691    1011.7856   -14268.477    163.59842    1.0922001 
   48900    239.39506   -404.16553    181563.75   -13250.659    984.75585   -14235.415    163.62576    1.0922001 
   49000    240.29265   -334.14694    181563.75   -13247.489    988.44809   -14235.937    164.26398    1.0922001 
   49100    242.69331   -197.39499    181563.75   -13277.495    998.32327   -14275.819    164.53575    1.0922001 
   49200    242.73896   -466.46327    181563.75   -13268.377    998.51105   -14266.888     163.7869    1.0922001 
   49300    242.79697   -403.08264    181563.75   -13240.582    998.74968   -14239.331     164.4331    1.0922001 
   49400    238.49525   -281.87875    181563.75   -13257.053    981.05448   -14238.107    165.02411    1.0922001 
   49500    234.17628   -314.99384    181563.75   -13294.139     963.2883   -14257.427     165.6409    1.0922001 
   49600    239.59827   -293.78787    181563.75   -13287.389    985.59175   -14272.981    166.09386    1.0922001 
   49700    238.15486   -485.38841    181563.75   -13256.849    979.65428   -14236.503    165.79201    1.0922001 
   49800    235.44699   -184.03407    181563.75   -13296.737    968.51539   -14265.252    165.53804    1.0922001 
   49900    242.76777   -388.11947    181563.75   -13275.789    998.62958   -14274.419    166.45834    1.0922001 
   50000    234.04379   -350.56374    181563.75   -13309.041    962.74332   -14271.784    165.68119    1.0922001 
Loop time of 156.619 on 12 procs for 50000 steps with 9253 atoms

Performance: 137.915 ns/day, 0.174 hours/ns, 319.247 timesteps/s
98.1% CPU use with 12 MPI tasks x no OpenMP threads

MPI task timing breakdown:
Section |  min time  |  avg time  |  max time  |%varavg| %total
---------------------------------------------------------------
Pair    | 21.229     | 58.712     | 129.37     | 637.0 | 37.49
Neigh   | 4.4179     | 5.8572     | 8.1741     |  64.7 |  3.74
Comm    | 10.061     | 65.21      | 119.64     | 655.8 | 41.64
Output  | 1.7316     | 1.7348     | 1.7643     |   0.7 |  1.11
Modify  | 4.0205     | 23.557     | 115.52     | 845.0 | 15.04
Other   |            | 1.548      |            |       |  0.99

Nlocal:        771.083 ave        1011 max         630 min
Histogram: 5 3 0 0 0 0 0 0 1 3
Nghost:        2343.25 ave        2744 max        1947 min
Histogram: 2 2 0 1 1 2 0 0 2 2
Neighs:        0.00000 ave           0 max           0 min
Histogram: 12 0 0 0 0 0 0 0 0 0
FullNghs:      83247.3 ave      103329 max       71110 min
Histogram: 3 4 1 0 0 0 0 0 1 3

Total # of neighbors = 998968
Ave neighs/atom = 107.96153
Neighbor list builds = 2777
Dangerous builds = 0

# Create data file for import to other simulations
#
write_data data.${NAME}
write_data data.Ibeam_240K
System init for write_data ...


Total wall time: 0:02:36
