
# Set production fixes - Nose/Hoover
#
fix                 4 water temp/csvr ${START_TEMP} ${END_TEMP} 500.0 928347
fix                 4 water temp/csvr 240 ${END_TEMP} 500.0 928347
fix                 4 water temp/csvr 240 227 500.0 928347


## divide "droplet" into core and surface
#region		core_reg cylinder z 135 135 44.6 20 INF units box
#region		surface_reg cylinder z 135 135 44.6 20 INF units box side out
#group		core dynamic all region core_reg
#group		surface dynamic all region surface_reg

## compute pressure core
#compute        peratom_core core stress/atom NULL
#compute        p_core core reduce sum c_peratom_core[1] c_peratom_core[2] c_peratom_core[3]
#variable       press_core equal -(c_p_core[1]+c_p_core[2]+c_p_core[3])/(3*1249982.5)


## compute pressure surface
#compute        peratom_surf surface stress/atom NULL
#compute        p_surf surface reduce sum c_peratom_surf[1] c_peratom_surf[2] #c_peratom_surf[3]
#variable       press_surf equal -(c_p_surf[1]+c_p_surf[2]+c_p_surf[3])/(3*42395)

## compute total pressure of drop
compute        peratom water stress/atom NULL
compute        p water reduce sum c_peratom[1] c_peratom[2] c_peratom[3]
variable       press equal -(c_p[1]+c_p[2]+c_p[3])/(3*58301)


# compute order parameter
compute        3 all orientorder/atom nnn NULL cutoff 3.5

# compute center of mass of bridge
compute 	4 water com

# Run simulation
thermo_style        custom step c_2 press vol etotal ke pe v_press c_1[4] c_4[*]
thermo              200
dump		     1 water custom 400 ${DIR}/prod.${NAME}.dump id type x y z vx vy vz c_3[*] c_peratom[*]
dump		     1 water custom 400 run_8/prod.${NAME}.dump id type x y z vx vy vz c_3[*] c_peratom[*]
dump		     1 water custom 400 run_8/prod.ibeam_cooling_8.dump id type x y z vx vy vz c_3[*] c_peratom[*]
run                 ${STEPS}
run                 5200000
Neighbor list info ...
  update every 1 steps, delay 0 steps, check yes
  max neighbors/atom: 2000, page size: 100000
  master list distance cutoff = 6.67472
  ghost atom cutoff = 6.67472
  binsize = 3.33736, bins = 57 9 12
  2 neighbor lists, perpetual/occasional/extra = 1 1 0
  (1) pair sw, perpetual
      attributes: full, newton on
      pair build: full/bin/atomonly
      stencil: full/bin/3d
      bin: standard
  (2) compute orientorder/atom, occasional, copy from (1)
      attributes: full, newton on
      pair build: copy
      stencil: none
      bin: none
Per MPI rank memory allocation (min/avg/max) = 6.163 | 6.778 | 7.286 Mbytes
Step c_2 Press Volume TotEng KinEng PotEng v_press c_1[4] c_4[1] c_4[2] c_4[3] 
       0    237.97441   -201.70524    204420.41   -23293.807    1727.2831    -25021.09   -214.39423    34.009917    95.093273    14.530457    27.922463 
     200    238.13961   -329.85338    204420.41   -23308.343    1728.4822   -25036.825    -625.7906    35.244302     95.09227    14.526685    27.958545 
     400    230.81442   -329.37711    204420.41   -23274.684     1675.314   -24949.998   -603.56861    36.736802    95.092323    14.524264    27.973654 
     600    240.96907   -214.45553    204420.41   -23132.809    1749.0192   -24881.828   -223.42682    37.584254    95.089056    14.522592    27.961224 
     800    240.41399   -210.63873    204420.41   -23139.588    1744.9903   -24884.578   -205.29987    38.529173    95.089324    14.522085    27.956009 
    1000    240.27103   -277.20398    204420.41   -23219.743    1743.9526   -24963.696   -413.52185    40.293612    95.088948    14.520439    27.978671 
    1200    239.23995   -218.21257    204420.41   -23212.838    1736.4687   -24949.307      -224.45     41.94535    95.087288    14.520391     27.98357 
    1400    238.04619   -407.86558    204420.41   -23216.753    1727.8041   -24944.557   -904.90474    43.263874    95.085657    14.520142    27.990036 
    1600    244.16032   -379.67532    204420.41   -23240.262    1772.1821   -25012.444   -792.09631    43.949848    95.086469    14.519049    27.973869 
    1800    244.09846   -337.50977    204420.41   -23228.565    1771.7331   -25000.298   -654.19791    46.193615    95.087114    14.518727    27.977397 
    2000     242.1329   -216.08634    204420.41   -23162.151    1757.4665   -24919.617   -179.62319    46.861945    95.086994    14.514161    27.966733 
    2200     239.1693   -445.97758    204420.41   -23209.191    1735.9559   -24945.147    -1072.012    48.517426    95.086862    14.514206    27.968983 
    2400     244.8922    -299.8073    204420.41   -23220.616    1777.4943    -24998.11   -558.15852    50.296427    95.086899    14.514706    27.959987 
    2600    234.63367   -466.55602    204420.41   -23269.052    1703.0351   -24972.087    -1079.075    52.564851    95.085882    14.512122    27.956566 
    2800    239.39006   -474.71051    204420.41   -23161.039    1737.5583   -24898.598   -1120.9643    53.892756    95.087089    14.507119    27.953552 
    3000    238.63929   -432.65155    204420.41   -23216.449     1732.109   -24948.558   -985.91049    55.793118    95.087752    14.503164    27.945252 
    3200    233.09992   -451.74895    204420.41   -23271.622    1691.9028   -24963.525   -1060.2635    57.433589     95.08763    14.499624     27.94965 
    3400    236.86689   -298.79077    204420.41   -23260.071    1719.2444   -24979.315   -500.19813    59.638687    95.087961    14.498036    27.959973 
    3600    237.34678   -431.15526    204420.41   -23234.198    1722.7276   -24956.926   -985.45322     60.95059    95.087767    14.496819    27.976596 
    3800    242.87568   -282.18518    204420.41   -23164.249    1762.8578   -24927.107   -460.22404    62.044166      95.0878    14.496664    27.961851 
    4000    239.87344   -405.38651    204420.41   -23202.685    1741.0668   -24943.751   -913.56937    64.251085    95.090022    14.498501    27.958029 
    4200    247.41245   -396.73554    204420.41   -23165.114     1795.787   -24960.901   -830.69169    65.276494    95.090496    14.499588    27.952793 
    4400       239.08   -153.41992    204420.41   -23188.867    1735.3078   -24924.175    4.5196624    66.027589    95.090572    14.497826    27.961361 
    4600    240.76333   -308.81877    204420.41   -23277.651    1747.5258   -25025.176   -574.27115    67.289633    95.090917    14.494733    27.947353 
    4800    242.48759   -323.59749    204420.41   -23206.161     1760.041   -24966.202   -606.49465    68.791745    95.091563    14.495691     27.93801 
    5000     240.9198   -304.59011    204420.41   -23274.775    1748.6616   -25023.436   -524.83053    70.857949    95.092179     14.49738    27.935618 
    5200    237.53044    -485.4509    204420.41   -23258.942    1724.0607   -24983.003   -1158.9589    71.918897    95.091283    14.497809    27.955675 
    5400    239.87581   -425.23802    204420.41   -23264.923     1741.084   -25006.007   -932.95597    73.847009    95.090493    14.496917    27.970856 
    5600    236.16728    -241.9637    204420.41   -23280.376    1714.1665   -24994.543   -303.06601    76.100797    95.090417    14.497583    27.985504 
    5800    241.61945   -421.03021    204420.41   -23236.134    1753.7398   -24989.874   -997.97591    77.387366    95.089502    14.496628    27.993763 
    6000    239.56442   -267.91235    204420.41    -23319.15    1738.8238   -25057.974   -420.16113    78.111224    95.088825    14.495205    27.976448 
    6200    237.51965   -339.23348    204420.41   -23317.181    1723.9823   -25041.164   -697.23226    78.587617    95.089322    14.491635    27.985535 
    6400    233.30608   -384.63279    204420.41   -23281.972    1693.3991   -24975.371    -841.1273     80.28584    95.089783    14.493098    27.984502 
    6600    236.51007   -209.11943    204420.41   -23285.116    1716.6545   -25001.771   -189.43007    82.251394    95.089689    14.495018    27.989701 
    6800    231.91485   -293.15876    204420.41   -23264.169    1683.3012    -24947.47   -484.46143    82.633048    95.089818    14.496902    27.963934 
    7000    241.99345   -359.02009    204420.41   -23199.761    1756.4544   -24956.215   -721.04541    83.935814    95.088765    14.499668    27.950881 
    7200    232.92494   -421.48561    204420.41   -23285.408    1690.6327   -24976.041   -903.36787    84.777582    95.087816    14.501767    27.913993 
    7400    235.97804   -205.24635    204420.41   -23230.217    1712.7929    -24943.01   -186.27367    86.017775      95.0874    14.503211    27.919404 
    7600    244.64729    -532.9951    204420.41   -23151.209    1775.7167   -24926.926   -1351.7071    88.592276    95.086326    14.504429    27.903224 
    7800    236.37037    -213.6945    204420.41   -23269.663    1715.6406   -24985.304   -245.85774    89.760743    95.085699    14.506451    27.919555 
    8000    239.58073   -346.86824    204420.41   -23129.396    1738.9422   -24868.338   -702.21254    91.517856    95.086464    14.507641    27.928398 
    8200    240.10246   -210.68692    204420.41   -23157.556    1742.7291   -24900.285    -204.4974    93.503498    95.086733    14.511006    27.921472 
    8400    243.64805   -486.71745    204420.41   -23110.059    1768.4639   -24878.522   -1196.6567    96.029461    95.087354    14.514713     27.93098 
    8600    244.28024    -227.5824    204420.41   -23172.432    1773.0525   -24945.485   -262.18641    97.064871    95.086846    14.518108    27.947732 
    8800    230.93265   -390.53549    204420.41   -23209.008    1676.1721    -24885.18   -875.98701    98.692615    95.085311    14.519634      27.9666 
    9000    241.34956   -86.156253    204420.41   -23176.197    1751.7809   -24927.978    220.46387    100.42045    95.085655    14.519108    27.982191 
    9200    241.88445   -327.34629    204420.41   -23171.793    1755.6632   -24927.456   -595.37123    103.18605    95.084645    14.521965    27.988852 
    9400    236.80206   -500.09763    204420.41   -23218.949    1718.7738   -24937.723   -1195.5556    105.02226    95.083895    14.523584    27.986091 
    9600    245.18624   -280.40592    204420.41   -23276.221    1779.6285   -25055.849   -459.23136    106.19545    95.084368    14.520291    27.982877 
    9800    247.09326   -401.59435    204420.41   -23163.047    1793.4702   -24956.517   -907.65351    107.96419    95.084928    14.520605    27.976427 
   10000    242.62096    -378.6549    204420.41   -23255.272     1761.009   -25016.281   -786.94636    109.23681     95.08662    14.518692    27.993371 
   10200    241.93754   -293.99826    204420.41   -23152.474    1756.0486   -24908.522   -508.53803     110.4608    95.087044    14.521282    28.008985 
   10400     243.1779   -211.49361    204420.41   -23149.891    1765.0515   -24914.942   -233.78061    112.73379    95.088859     14.52405    28.000355 
   10600    238.24881   -440.38715    204420.41   -23196.783    1729.2748   -24926.058   -987.89507    113.65092    95.088925    14.523734     28.02186 
   10800    236.05497   -230.09485    204420.41   -23276.846    1713.3513   -24990.197   -307.42752    114.96015    95.090307    14.523189    27.997245 
   11000    237.33996   -284.57795    204420.41   -23321.567    1722.6781   -25044.245   -501.94636    117.02071    95.088288    14.523366     27.99322 
   11200    237.46595   -428.76065    204420.41   -23279.126    1723.5926   -25002.719   -970.54149    117.94051    95.091071    14.523114    27.984076 
   11400    240.60753   -370.24021    204420.41   -23225.517     1746.395   -24971.912   -755.04945    118.83198     95.09056    14.521037    27.977864 
   11600    245.21705   -300.03959    204420.41   -23149.938    1779.8522   -24929.791    -514.3012    118.85872    95.089606    14.518399    27.966205 
   11800    237.39949    -471.0007    204420.41   -23144.088    1723.1102   -24867.198   -1160.0533    120.63808    95.091317    14.517417    27.974496 
   12000    236.20828   -261.41522    204420.41   -23129.828    1714.4641   -24844.292   -416.14843    123.28127    95.091152    14.513483    27.979264 
   12200    242.83234   -431.97999    204420.41    -23116.89    1762.5433   -24879.434   -952.26142    126.17843     95.09222    14.512257    27.980091 
   12400    238.55155   -266.65801    204420.41   -23151.867    1731.4722    -24883.34   -396.46836    127.26242    95.092319     14.50894    28.001961 
   12600    239.69913   -231.00512    204420.41   -23108.272    1739.8016   -24848.074   -269.30982    128.23918    95.091313    14.508162     28.00244 
   12800    239.29641    -478.0036    204420.41   -23164.311    1736.8786   -24901.189   -1151.0873    130.39984    95.091048    14.509705    28.029488 
   13000    237.02503   -266.41425    204420.41   -23184.951    1720.3923   -24905.343   -411.34257    133.00348    95.091117    14.511098    28.038368 
   13200    237.97305   -398.44332    204420.41   -23240.518    1727.2732   -24967.792   -837.71202    135.07652     95.09195    14.507481    28.027838 
   13400    237.59608   -420.25591    204420.41   -23319.931    1724.5371   -25044.468   -939.90114    136.14522    95.093202    14.505733    28.020522 
   13600     239.3851   -390.29373    204420.41   -23274.102    1737.5223   -25011.625   -846.01445    136.32215    95.093729    14.506048    28.035994 
   13800    239.08991   -156.28675    204420.41   -23192.655    1735.3797   -24928.034    -49.14458    135.74524     95.09207     14.50751    28.029421 
   14000    243.19175   -368.89143    204420.41   -23140.377     1765.152   -24905.529   -778.90408    137.53734     95.09082    14.509267    28.013613 
   14200    237.26699   -507.51224    204420.41   -23188.312    1722.1485    -24910.46   -1248.1105    139.31175    95.090809    14.509635    27.996888 
   14400    235.57496   -280.95351    204420.41   -23261.453    1709.8673    -24971.32    -427.2448    139.87267    95.091289    14.509218    27.990333 
   14600    238.40857   -28.857119    204420.41   -23209.869    1730.4343   -24940.304    452.42873    140.30624    95.090772    14.509046    27.982083 
   14800    239.00572   -314.47149    204420.41   -23181.347    1734.7687   -24916.116   -576.98028    142.21756    95.092554    14.511309    27.961029 
   15000    239.02484    -308.9946    204420.41   -23199.631    1734.9074   -24934.538   -561.65128    143.72682    95.092973    14.511104     27.95264 
   15200    243.17712   -391.76425    204420.41   -23193.006    1765.0458   -24958.052   -838.98928    144.64304    95.094413    14.510547    27.963416 
   15400    234.66712   -356.46218    204420.41   -23248.094    1703.2779   -24951.371   -728.58726    146.20419    95.095904    14.510612    27.955896 
   15600      245.935   -307.60372    204420.41   -23136.461    1785.0633   -24921.524   -534.66159     147.4464    95.097839    14.512702    27.974828 
   15800    245.12357   -249.74093    204420.41   -23168.446    1779.1736    -24947.62   -340.20837    147.79845    95.099153    14.516019    27.962364 
   16000    245.89611   -341.82128    204420.41   -23230.061     1784.781   -25014.842   -658.63567    149.31924    95.099456     14.51375    27.954814 
   16200    244.79827   -290.48984    204420.41   -23217.209    1776.8126   -24994.021   -477.97943    151.58504    95.099919    14.509046     27.94515 
   16400    237.94646   -349.43587    204420.41   -23258.759    1727.0803   -24985.839   -693.70783    153.46694    95.100066    14.505191    27.957628 
   16600    241.86753   -379.58129    204420.41   -23161.792    1755.5404   -24917.333   -792.91745    155.30024    95.100634    14.501842    27.966108 
   16800    243.50862   -375.27113    204420.41   -23219.092    1767.4519   -24986.544   -782.39193    155.98325    95.102058    14.500478    27.969534 
   17000    232.70729   -340.07377    204420.41   -23243.284    1689.0529   -24932.337   -695.11986    158.34539    95.103029     14.49939     27.98626 
   17200    238.05233    -325.5138    204420.41   -23235.206    1727.8487   -24963.055   -601.68165    159.19935     95.10504    14.501335    28.007526 
   17400    236.01858   -285.23972    204420.41   -23301.131    1713.0872   -25014.218   -469.41608     159.2001    95.107073    14.502309    28.013739 
   17600    239.97543    -415.9523    204420.41   -23184.933    1741.8071    -24926.74   -954.80193    159.86354    95.105786    14.501106    28.024068 
   17800    238.46472   -304.12721    204420.41   -23223.806    1730.8419   -24954.648   -570.32634    162.23557    95.108182    14.502866    28.035264 
   18000    242.99413   -421.58886    204420.41   -23179.897    1763.7176   -24943.615   -965.46509    163.19532     95.10587    14.503456     28.04072 
   18200    241.40699   -310.89852    204420.41   -23210.789    1752.1977   -24962.986    -606.2817    163.41104    95.104649    14.501347    28.053579 
   18400     240.0015   -284.41368    204420.41   -23181.598    1741.9963   -24923.595   -514.36662    164.81185    95.105653    14.499036    28.042529 
   18600    241.80872   -389.52043    204420.41   -23171.773    1755.1136   -24926.887   -812.45275    166.26131    95.104812    14.498578    28.041981 
   18800    233.33463   -247.74095    204420.41   -23258.555    1693.6063   -24952.161   -338.64619    167.34083    95.105043    14.496745    28.010693 
   19000    242.26607   -402.65716    204420.41   -23189.098    1758.4331   -24947.531   -887.20428    169.40747    95.104952    14.496628    28.012549 
   19200    241.16125   -462.53584    204420.41   -23213.342     1750.414   -24963.757   -1085.0432    170.93177    95.105323    14.497027    28.013832 
   19400    244.99083   -382.66571    204420.41   -23169.324    1778.2102   -24947.534   -812.09046    171.52907    95.106878    14.496677    28.000909 
   19600    243.06915   -377.54931    204420.41   -23188.697    1764.2621   -24952.959   -781.53556    172.28478    95.106175    14.495021    27.987922 
   19800    248.74344   -219.52389    204420.41   -23182.242    1805.4476   -24987.689   -215.28097    174.06149    95.106471    14.494727    27.988585 
   20000    238.60833   -298.34499    204420.41    -23199.39    1731.8842   -24931.274   -512.22426      174.594    95.106278     14.49437    27.993054 
   20200    237.61795   -130.41276    204420.41   -23308.886    1724.6958   -25033.582    102.10662    177.34488    95.106718    14.494059     27.97724 
   20400    241.09052   -439.26751    204420.41   -23235.693    1749.9007   -24985.593   -1030.4095    178.37248    95.106749    14.494251    27.958897 
   20600    236.40482   -245.08541    204420.41   -23355.431    1715.8906   -25071.322   -330.54783    178.74194    95.104154    14.494686    27.957489 
   20800    241.72454   -353.37076    204420.41   -23276.744    1754.5026   -25031.247   -697.20802    178.81532    95.103227    14.493177    27.969885 
   21000    243.59209   -385.18666    204420.41   -23308.257    1768.0577   -25076.315   -814.10612    181.34342    95.102745    14.494776    27.984649 
   21200      243.955   -559.81223    204420.41   -23261.899    1770.6919    -25032.59   -1442.7814    181.66324    95.101957    14.494773    27.987904 
   21400    235.16342   -417.59699    204420.41   -23260.033    1706.8802   -24966.913   -965.25273    183.12249    95.102817    14.494182    27.981358 
   21600    246.47478   -478.34049    204420.41   -23140.261    1788.9811   -24929.242   -1148.2499    184.73937    95.103678    14.496676    27.979765 
   21800    240.71314   -220.82224    204420.41   -23247.333    1747.1615   -24994.495   -236.65374    185.46567    95.103422    14.499236    27.973672 
   22000    234.66242   -522.96828    204420.41   -23292.685    1703.2438   -24995.929   -1310.2826    186.20405    95.103762    14.500367    27.969816 
   22200    237.19023   -392.76638    204420.41   -23297.205    1721.5913   -25018.797   -882.29958    188.13321    95.103397    14.500007    27.957328 
   22400    245.13678   -195.71865    204420.41   -23199.041    1779.2695    -24978.31   -180.78196    191.29376    95.104899    14.503928    27.951584 
   22600     238.2241   -331.69105    204420.41    -23272.46    1729.0954   -25001.556    -664.4526    193.88149    95.105313    14.506269    27.963742 
   22800    239.41047   -356.08895    204420.41   -23223.309    1737.7064   -24961.015   -678.07687    194.78395    95.106057    14.507429    27.980922 
   23000    238.81116   -415.99758    204420.41   -23275.179    1733.3565   -25008.535   -920.81117    195.23783    95.105621    14.507828    27.990956 
   23200    242.99228   -330.26855    204420.41   -23212.695    1763.7042   -24976.399   -620.28655    196.20648    95.106001    14.506542    28.007153 
   23400    246.40678   -234.63074    204420.41   -23215.233    1788.4876    -25003.72   -306.73928    196.79482    95.105606    14.505309    28.005284 
   23600    242.03042   -360.13887    204420.41   -23144.339    1756.7228   -24901.062   -694.97332    197.40885    95.105304    14.502367    28.024793 
   23800    244.31984   -296.67678    204420.41    -23145.07      1773.34    -24918.41   -513.94636    198.95857    95.102884     14.50339    28.022258 
   24000     244.5156   -452.08388    204420.41   -23196.133    1774.7608   -24970.894   -1075.6252    200.09743    95.103448     14.50209    28.015565 
   24200    240.95612   -173.95486    204420.41    -23185.51    1748.9252   -24934.435   -53.981444    201.93394    95.105246    14.502927    28.001144 
   24400    234.61272   -498.66406    204420.41   -23265.856    1702.8831   -24968.739   -1211.9611    203.72675    95.105498    14.503655     28.00273 
   24600     233.5376    -485.1144    204420.41   -23337.339    1695.0795   -25032.419   -1135.1786    204.64907    95.103554    14.504645    27.972682 
   24800    237.44424   -422.31552    204420.41   -23292.965     1723.435     -25016.4   -950.09702    205.23536    95.102351     14.50583    27.976983 
   25000    241.42163   -358.80778    204420.41   -23318.176     1752.304    -25070.48   -718.35229    207.45501    95.101562    14.507313    27.992017 
   25200    230.19132   -486.62444    204420.41   -23412.276    1670.7913   -25083.067   -1143.4627    208.97184    95.101608    14.508545    27.981272 
   25400    239.76057   -278.51572    204420.41   -23308.461    1740.2475   -25048.708   -507.90725    208.49973    95.100376    14.509757    28.000141 
   25600    241.61676   -430.62961    204420.41   -23118.048    1753.7203   -24871.768   -953.74208    210.85331    95.102691     14.50654    28.025108 
   25800    241.29038   -446.40504    204420.41   -23196.016    1751.3513   -24947.367    -1085.736    212.16228    95.103957    14.505798    28.027274 
   26000    236.53741   -446.62449    204420.41   -23243.577    1716.8529    -24960.43   -1025.8631    213.16023    95.103526    14.506198    28.042131 
   26200    238.47568   -301.02876    204420.41   -23281.643    1730.9214   -25012.565   -485.81097    214.93479    95.103469    14.507072     28.04355 
   26400    236.88534   -326.75431    204420.41   -23325.884    1719.3783   -25045.263   -622.89517    215.41541    95.106827    14.508124    28.045749 
   26600    245.78095   -283.15943    204420.41   -23264.378    1783.9451   -25048.323   -439.86934    216.64122    95.106232    14.510274    28.029146 
   26800    242.35501   -75.158312    204420.41   -23277.033    1759.0787   -25036.111    267.17578    218.31062    95.104467    14.510942    28.016774 
   27000    249.33193   -334.72939    204420.41    -23224.58    1809.7191   -25034.299     -652.651    220.07395    95.103597    14.512309    27.994731 
   27200    241.57357   -282.98554    204420.41   -23324.231    1753.4068   -25077.637   -473.09262    221.18561    95.104681    14.514391     28.00097 
   27400    243.78934   -263.92995    204420.41   -23265.855    1769.4895   -25035.344   -376.66679     220.4768    95.104905    14.515061    27.961579 
   27600     239.3685   -425.99518    204420.41   -23409.539    1737.4018   -25146.941   -972.52198    221.48745    95.104414    14.517436    27.951486 
   27800     247.7853   -128.09105    204420.41   -23306.211    1798.4932   -25104.704    98.562083    220.66723     95.10386    14.519273    27.963467 
   28000    232.80069   -425.07732    204420.41   -23386.524    1689.7308   -25076.254   -953.61836    222.34796    95.105284     14.52061    27.960747 
   28200    237.72181   -163.79568    204420.41   -23335.998    1725.4497   -25061.448   -76.120505    223.89094    95.104369    14.520183    27.955112 
   28400    239.10499   -432.76694    204420.41   -23327.162    1735.4891   -25062.651   -994.23733    226.06101    95.104106    14.518497    27.934072 
   28600    241.22263   -388.62092    204420.41    -23313.88    1750.8596    -25064.74   -837.37925    227.42148    95.104826    14.519258    27.918042 
   28800    237.15945   -387.66489    204420.41   -23306.432    1721.3679   -25027.799   -823.82597    226.83634    95.106783    14.520386    27.902878 
   29000     245.4471   -219.31694    204420.41   -23270.919    1781.5219   -25052.441    -273.5249    227.31514    95.108394    14.517021    27.907869 
   29200    242.88895   -416.94204    204420.41    -23210.54    1762.9542   -24973.494   -971.44599    227.90374    95.109499    14.517228    27.894463 
   29400    239.73607   -272.91487    204420.41   -23259.037    1740.0697   -24999.107    -405.6001    228.19287    95.109064     14.51529    27.880154 
   29600    235.47959   -346.27177    204420.41   -23243.217     1709.175   -24952.392   -711.59961    229.92789    95.107713    14.512995    27.876826 
   29800    238.27069   -325.39136    204420.41   -23322.641    1729.4336   -25052.075    -657.1876    231.27087    95.109237    14.513352    27.876157 
   30000     236.8086   -546.87379    204420.41   -23362.472    1718.8213   -25081.293   -1420.9844     232.6291    95.108169    14.511986    27.862072 
   30200     241.5584   -460.87868    204420.41   -23265.107    1753.2967   -25018.403   -1069.9955    236.07826    95.105119    14.508518    27.875593 
   30400     237.5489   -322.84106    204420.41   -23256.042    1724.1946   -24980.236   -659.98073    238.50426    95.106232    14.505854    27.893219 
   30600     235.5052   -434.54615    204420.41   -23300.149    1709.3609    -25009.51   -1013.9772     240.8983    95.106931    14.506631    27.902409 
   30800    238.76648   -252.60465    204420.41   -23238.191    1733.0321   -24971.223   -345.00464    241.52045    95.107515    14.505642    27.904954 
   31000    243.91313   -414.33692    204420.41    -23256.41     1770.388   -25026.798   -967.86371    241.48966    95.107898    14.506533    27.905786 
   31200    246.33334   -310.23726    204420.41   -23212.009    1787.9545   -24999.964    -511.8595    243.44614    95.108313    14.508332    27.885955 
   31400    240.56009   -336.84078    204420.41   -23148.711    1746.0507   -24894.762   -643.53805     245.2921    95.109362    14.510492    27.888291 
   31600    231.48601   -337.20131    204420.41   -23210.945    1680.1885   -24891.134   -631.36294    244.67237    95.108746    14.510205    27.893001 
   31800     243.6762   -358.86433    204420.41   -23144.491    1768.6683   -24913.159   -758.63702    246.47083    95.107312    14.511169    27.892774 
   32000    236.83369   -217.66844    204420.41    -23237.11    1719.0035   -24956.113   -215.31651     247.4516    95.108614    14.512204    27.894452 
   32200     238.2865   -298.67874    204420.41   -23262.968    1729.5484   -24992.516   -523.05493    248.52883    95.108266    14.514286    27.918959 
   32400    236.87193    -382.7287    204420.41   -23267.852     1719.281   -24987.133   -847.86834    249.80792    95.107746    14.513848    27.920818 
   32600    245.34839   -382.89292    204420.41   -23208.337    1780.8055   -24989.142   -800.60187    251.23526    95.109717    14.516147     27.91683 
   32800    243.77858   -295.47142    204420.41   -23193.423    1769.4114   -24962.834   -484.03824    251.10914    95.109767    14.516334    27.918479 
   33000     242.2244   -297.21584    204420.41   -23187.488    1758.1307   -24945.618   -508.68804    251.30791    95.108183    14.514375     27.92434 
   33200    237.26511   -354.30753    204420.41   -23209.314    1722.1348   -24931.449   -694.50253    253.87496    95.108825    14.515701    27.928069 
   33400    238.34273   -332.85914    204420.41   -23258.493    1729.9564   -24988.449   -634.80398    254.02172    95.109023    14.517388    27.921108 
   33600    240.90415   -272.88537    204420.41   -23331.902    1748.5479    -25080.45   -429.52715    255.14018    95.109055    14.520955    27.907408 
   33800     246.1685   -210.16101    204420.41   -23179.682    1786.7581    -24966.44    -224.6337    255.83954    95.107725    14.524712     27.91156 
   34000    237.96654   -292.84838    204420.41   -23337.848     1727.226   -25065.074   -502.46106    258.08646    95.106269    14.528267     27.93019 
   34200     234.5198   -444.57387    204420.41   -23326.401    1702.2086    -25028.61   -1036.5946      259.694    95.106497    14.531456    27.927442 
   34400    238.88083   -506.59424    204420.41   -23311.692    1733.8621   -25045.554   -1232.8725    258.74898    95.104369    14.530637     27.93289 
   34600    244.10792   -466.49645    204420.41   -23189.402    1771.8018   -24961.204   -1129.8812    259.99864    95.104457    14.529497    27.931782 
   34800    241.39846   -306.72163    204420.41   -23275.572    1752.1358   -25027.708   -556.05772     261.5349     95.10562    14.525594    27.933295 
   35000    241.96459   -328.67298    204420.41   -23330.794    1756.2449   -25087.039   -609.16671    262.13575    95.103592    14.526983    27.930875 
   35200    239.67886   -307.26062    204420.41   -23236.201    1739.6544   -24975.855   -580.05987     263.3319    95.103027    14.526767    27.922557 
   35400    238.15409   -295.91778    204420.41   -23216.613    1728.5873     -24945.2   -536.75895    265.16393    95.101753    14.527747    27.941302 
   35600    245.78272   -185.16926    204420.41   -23250.188     1783.958   -25034.146   -110.21459    265.17699    95.100169    14.529012     27.94657 
   35800    246.99616   -476.38385    204420.41   -23169.884    1792.7654    -24962.65   -1118.3503    267.32529    95.097275    14.533213    27.927453 
   36000    236.45167   -331.16965    204420.41   -23307.354    1716.2307   -25023.585   -637.26005    267.95322    95.096529    14.533023    27.950529 
   36200    241.07085   -246.60549    204420.41   -23302.322    1749.7579    -25052.08    -362.9219     268.9325     95.09584    14.535575    27.946557 
   36400    244.41302   -431.44667    204420.41   -23240.446    1774.0163   -25014.462   -1031.9141    270.51867     95.09589    14.534969    27.920728 
   36600    237.62589   -379.22996    204420.41   -23216.575    1724.7535   -24941.329   -782.89537    271.78461    95.093412    14.535581    27.916206 
   36800    233.38189   -399.03067    204420.41   -23281.312    1693.9493   -24975.261   -885.12005    274.33772    95.092055    14.533617    27.902541 
   37000     241.0487   -294.68335    204420.41   -23256.874    1749.5971   -25006.471   -499.49212    274.88499     95.09069    14.534067    27.908456 
   37200    240.69495   -532.86847    204420.41   -23291.685    1747.0296   -25038.715   -1317.4058     276.4936    95.092473     14.53389    27.900015 
   37400    238.71683   -383.22409    204420.41   -23301.448    1732.6718    -25034.12    -804.2481    278.27325    95.092766    14.536048    27.906602 
   37600    238.40189   -303.31027    204420.41   -23316.437    1730.3859   -25046.823   -541.33955    279.64538    95.093619    14.536035    27.916479 
   37800    233.11923   -248.18327    204420.41   -23352.246    1692.0429   -25044.289     -347.462    282.41441    95.094092    14.533866    27.904937 
   38000    240.17082   -321.10783    204420.41   -23253.032    1743.2253   -24996.257   -592.45069    284.38378    95.095474    14.532949    27.915203 
   38200    237.19334   -303.28458    204420.41   -23249.065    1721.6139   -24970.679   -524.27427     285.3863    95.096797    14.534095    27.910186 
   38400     241.2482   -231.56541    204420.41   -23212.774    1751.0452   -24963.819   -292.11852    286.87572    95.096847     14.53294    27.918815 
   38600    242.03183   -451.62232    204420.41   -23265.647     1756.733    -25022.38   -1033.8435     288.4896    95.096502    14.532973    27.919413 
   38800    240.24523   -397.89905    204420.41   -23230.957    1743.7654   -24974.722   -887.44331    290.22991    95.094905     14.53406    27.908186 
   39000     242.8802    34.697648    204420.41   -23172.312    1762.8907   -24935.202    642.97828    291.27558    95.093177    14.532338    27.903615 
   39200    240.81637   -450.97094    204420.41   -23269.677    1747.9108   -25017.588   -1011.4233    293.60369    95.092911    14.529854    27.907702 
   39400    242.20008   -353.87032    204420.41   -23224.531    1757.9542   -24982.485   -711.29077    297.21672    95.092969    14.525848    27.930049 
   39600    240.68549   -174.71651    204420.41   -23163.244    1746.9609   -24910.205   -54.125436    297.85317    95.094335    14.520788    27.923262 
   39800    241.37304   -386.13532    204420.41   -23249.657    1751.9513   -25001.608   -782.87649    299.56973    95.097641    14.517821    27.924289 
   40000    239.53997   -284.76173    204420.41   -23208.377    1738.6464   -24947.023   -472.08489    300.71023    95.099871    14.515929    27.917381 
   40200    236.02402   -277.56145    204420.41   -23203.232    1713.1267   -24916.358   -437.08992    300.90096    95.100583    14.512569    27.905689 
   40400    237.73853   -537.21963    204420.41   -23248.173     1725.571   -24973.744   -1352.2311     302.8319    95.099708    14.508352    27.930575 
   40600    238.16056   -276.00521    204420.41   -23169.257    1728.6342   -24897.891   -455.28565    303.96732    95.098195    14.507189    27.931069 
   40800     237.7908   -247.62515    204420.41   -23276.723    1725.9504   -25002.674    -382.9621    304.36784    95.096674     14.50942    27.947078 
   41000    235.30353   -230.98332    204420.41   -23280.001    1707.8971   -24987.898   -275.18788    306.00997    95.096769    14.508805    27.974308 
   41200    239.72468   -527.11223    204420.41   -23216.242     1739.987   -24956.229   -1375.5329    307.17952    95.096379    14.509271    27.994601 
   41400    236.29881   -244.05753    204420.41   -23243.588    1715.1211   -24958.709   -349.18723    309.93111    95.097044    14.510979     27.99485 
   41600    243.58031    -332.1127    204420.41   -23210.165    1767.9722   -24978.137   -614.72366     311.6246    95.096321    14.514304    28.002962 
   41800    249.68868    -383.7074    204420.41   -23222.902    1812.3084    -25035.21    -794.9383    311.45154    95.098805    14.516356    28.007225 
   42000    240.62642   -440.45243    204420.41   -23244.899    1746.5321   -24991.431    -1006.513    313.63924    95.100049    14.521411    28.010919 
   42200    233.66867   -425.61944    204420.41    -23286.54    1696.0309   -24982.571   -945.69568    314.85467    95.101975    14.523215    27.998332 
   42400    234.06802    -327.1362    204420.41   -23242.538    1698.9294   -24941.468   -619.52986    316.72227    95.100464    14.522669    27.997513 
   42600    243.54205   -384.77635    204420.41   -23273.546    1767.6945    -25041.24   -846.06128    318.72661    95.102391    14.519166    28.009906 
   42800    241.81696   -277.10593    204420.41   -23210.097    1755.1734    -24965.27    -459.7998    319.52781    95.102174    14.517502    28.013497 
   43000    234.11888   -346.60453    204420.41   -23223.225    1699.2986   -24922.524   -684.31012    321.96467    95.101489    14.517025    28.031909 
   43200    235.78103   -437.96763    204420.41   -23207.816    1711.3629   -24919.179   -1000.9181    324.09278    95.101978    14.517066    28.019365 
   43400    237.51302   -323.24882    204420.41   -23220.332    1723.9342   -24944.267   -599.03656     325.6813     95.10367    14.518624    28.003465 
   43600    238.33524    -305.6274    204420.41   -23250.441    1729.9021   -24980.343   -565.35373    327.45912     95.10369    14.522315    27.985441 
   43800    232.26604   -199.99287    204420.41   -23264.347    1685.8502   -24950.197   -165.88142    327.04655    95.104955    14.521989    27.967962 
   44000    235.00631    -607.5508    204420.41   -23266.116    1705.7398   -24971.856    -1640.983    329.30237    95.106381    14.525151    27.977536 
   44200    238.32131   -346.20315    204420.41   -23236.574     1729.801   -24966.375   -674.21289    331.11471    95.106987    14.524509    27.984645 
   44400    237.38338   -351.01465    204420.41   -23226.503    1722.9933   -24949.497   -693.68883    334.25637    95.108661    14.523352    27.979259 
   44600    237.46382    -302.8229    204420.41   -23218.768    1723.5771   -24942.345   -494.50831    336.22864    95.110422    14.521803    27.968306 
   44800     237.0986   -338.73441    204420.41   -23223.967    1720.9262   -24944.893   -645.25472     336.1141    95.111006    14.524203    27.978753 
   45000    238.98704   -342.33975    204420.41   -23205.212     1734.633   -24939.845   -700.60468    338.58679     95.11111    14.523005    27.965156 
   45200    237.84034   -533.13201    204420.41   -23181.492      1726.31   -24907.802    -1327.536    338.81109    95.111251    14.524154    27.944507 
   45400    235.54156   -160.62975    204420.41   -23282.955    1709.6248    -24992.58   -37.639168    340.45263     95.11126    14.527209    27.928453 
   45600    240.64042    -395.4231    204420.41   -23183.631    1746.6337   -24930.265   -870.07665    340.86959    95.111981    14.526077    27.914906 
   45800    240.09337   -151.94654    204420.41   -23223.235    1742.6631   -24965.899    4.0547374     342.8796    95.113423    14.526251    27.949638 
   46000    242.03038   -471.93401    204420.41   -23125.673    1756.7224   -24882.395   -1151.9624    347.17562    95.114356    14.524846    27.941801 
   46200    245.43484   -203.45492    204420.41   -23124.647    1781.4329   -24906.079   -171.81169    346.81511    95.114679     14.52236     27.94259 
   46400    239.51996   -218.55465    204420.41   -23199.862    1738.5011   -24938.363   -262.70117    346.58023    95.114974    14.522648    27.945531 
   46600    238.18615   -449.91495    204420.41    -23225.81      1728.82    -24954.63   -1043.8546    346.66362    95.114628    14.521625     27.95494 
   46800    235.80259   -286.96282    204420.41   -23190.274    1711.5194   -24901.794   -485.24329    350.00834    95.114154    14.521138    27.953979 
   47000    240.24826   -253.13696    204420.41   -23158.222    1743.7873   -24902.009   -309.31749    349.21038    95.114074     14.52172    27.968479 
   47200    236.23417   -311.46985    204420.41   -23278.855    1714.6519   -24993.507   -592.32767    351.05102    95.115659    14.522746    27.979881 
   47400    239.43339   -366.06793    204420.41   -23178.141    1737.8728   -24916.013   -761.19981    351.94442    95.116876    14.522054    27.982422 
   47600    241.08869   -318.78686    204420.41   -23185.541    1749.8874   -24935.428   -536.61732    352.42709    95.119163    14.521822    27.988811 
   47800    236.15217   -305.45602    204420.41   -23252.253    1714.0568    -24966.31   -531.05554    353.42759    95.117584    14.520711    27.992882 
   48000    238.14507   -317.51807    204420.41   -23260.722    1728.5218   -24989.244   -580.27583    354.39343    95.115471    14.516687    27.997257 
   48200    237.18765   -212.44603    204420.41   -23218.449    1721.5726   -24940.021   -178.24231    356.93453    95.116065    14.515715    28.006012 
   48400     239.4763   -436.10806    204420.41   -23203.546    1738.1842    -24941.73   -946.62906    358.89933    95.114355    14.513679    28.016076 
   48600    237.47921    -303.3341    204420.41   -23263.522    1723.6888    -24987.21   -536.27465    359.50936    95.115096    14.515411    28.041566 
   48800    233.39973   -286.36288    204420.41   -23230.073    1694.0789   -24924.152   -471.75997     362.3472    95.114635    14.517059    28.025138 
   49000    242.38703   -182.41555    204420.41   -23201.022    1759.3111   -24960.333   -114.50524    362.63753    95.117138      14.5192    28.001061 
   49200    237.64131   -425.60771    204420.41   -23140.856    1724.8653   -24865.721   -985.45911    366.22631    95.119103     14.51895    27.990239 
   49400    236.17245    -482.5296    204420.41   -23218.099     1714.204   -24932.303   -1123.2238    367.40686    95.117165    14.520609    27.997673 
   49600    240.78798   -337.23713    204420.41   -23216.917    1747.7048   -24964.621   -616.20992    369.34891     95.11734    14.522746    27.966036 
   49800    234.34295   -280.07974    204420.41   -23221.152     1700.925   -24922.077   -467.10702      369.851    95.118255     14.52578     27.96683 
   50000    244.33022   -358.24429    204420.41   -23218.856    1773.4153   -24992.271   -726.81806    370.56393    95.117666    14.528539    27.940333 
   50200    242.13436   -393.06164    204420.41   -23143.143    1757.4772    -24900.62   -845.11951    371.60283    95.118231    14.528809    27.925011 
   50400    238.65125   -355.47857    204420.41   -23181.527    1732.1958   -24913.723   -698.60143    373.42124    95.121356    14.530836    27.919076 
   50600    244.43289    -421.1843    204420.41   -23105.862    1774.1605   -24880.022   -913.34599    375.82458     95.12133    14.528322     27.93349 
   50800    233.32779   -384.22723    204420.41   -23287.949    1693.5567   -24981.506   -787.91267    378.26817    95.121432    14.524332    27.959819 
   51000    241.73235   -223.86649    204420.41   -23267.949    1754.5592   -25022.509   -256.55897    378.57608    95.121076    14.525737    27.952503 
   51200    237.91859   -417.01319    204420.41     -23268.5     1726.878   -24995.378   -914.78283    380.06602    95.122911    14.524999    27.941199 
   51400    235.65137   -398.65334    204420.41   -23252.545    1710.4219   -24962.967   -863.73747    381.56369    95.123534    14.523807    27.933178 
   51600     233.4033   -253.18216    204420.41   -23272.196    1694.1048   -24966.301   -351.57521    383.03894    95.123528    14.521855    27.914441 
   51800    239.51625   -336.07158    204420.41   -23208.849    1738.4742   -24947.323   -666.11169    385.23685    95.124763    14.520159    27.916588 
   52000    233.59251   -365.14864    204420.41   -23295.222    1695.4781     -24990.7   -749.84149    385.98322    95.125009    14.520823    27.893594 
   52200    239.80025   -241.74444    204420.41   -23296.081    1740.5356   -25036.616   -295.59429    386.54984    95.126958    14.519905    27.886093 
   52400    232.61543   -263.51767    204420.41   -23361.086    1688.3862   -25049.472   -397.58226    388.32333     95.12755    14.521927    27.866763 
   52600    236.62943   -434.71315    204420.41   -23190.621    1717.5209   -24908.142   -1015.2189    389.09387    95.127434    14.521731    27.872021 
   52800    249.10082   -265.64634    204420.41   -23114.174    1808.0416   -24922.215   -413.80052    391.32545    95.126588    14.521001    27.897304 
   53000    245.16075   -424.37499    204420.41   -23141.116    1779.4436   -24920.559   -941.30288    394.30645    95.125929    14.519811    27.900588 
   53200     239.8159   -408.19296    204420.41   -23278.815    1740.6491   -25019.464    -886.3683    394.37243     95.12584    14.519786    27.902825 
   53400    242.64706   -388.82693    204420.41   -23253.544    1761.1985   -25014.743   -833.62175    396.39077    95.125656    14.520034    27.894984 
   53600    242.20504   -482.05812    204420.41   -23313.869    1757.9901   -25071.859   -1138.8263    397.67867    95.125498    14.519893    27.888687 
   53800    240.40589   -569.65208    204420.41   -23253.075    1744.9315   -24998.006   -1477.6638    398.45434    95.125791    14.518017     27.88079 
   54000    242.12111   -358.93482    204420.41   -23240.781     1757.381   -24998.162   -717.05326    401.19473    95.127214    14.520135    27.867748 
   54200    238.63566   -409.21237    204420.41     -23201.7    1732.0827   -24933.783    -913.1124    400.67598     95.12395    14.522557    27.864731 
   54400    239.14305   -218.45892    204420.41   -23145.517    1735.7654   -24881.282   -232.61891    399.72121    95.122513    14.521762    27.871091 
   54600    240.67284   -437.63534    204420.41   -23212.493     1746.869   -24959.362   -991.23619    401.67834    95.119786    14.520186    27.870943 
   54800    235.92914   -112.75267    204420.41   -23187.997     1712.438   -24900.435    92.019847    402.06181     95.11925    14.519148    27.850623 
   55000    239.73271   -191.51328    204420.41   -23121.549    1740.0454   -24861.594   -150.55059    401.54291    95.121141    14.521001    27.832752 
   55200    233.13297   -323.99938    204420.41    -23266.22    1692.1426   -24958.362   -588.91034    401.40521    95.120974    14.523867    27.829381 
   55400    239.17862   -435.01868    204420.41   -23208.992    1736.0236   -24945.016   -970.01837    401.20956    95.121108    14.523251    27.818699 
   55600     244.1193   -317.31001    204420.41   -23205.705    1771.8844    -24977.59   -582.63913     403.2463     95.12063    14.522321     27.83269 
   55800    243.18526   -385.53395    204420.41   -23106.462    1765.1049   -24871.567   -855.47455    405.69134     95.12037    14.518571     27.83084 
   56000    243.08921   -319.40673    204420.41   -23130.519    1764.4077   -24894.926   -600.55115    407.58926    95.120146    14.513867    27.833921 
   56200    245.53979   -259.16442    204420.41   -23152.588    1782.1947   -24934.783    -372.5594    408.75795    95.120428    14.513454    27.830252 
   56400    235.18245   -345.39617    204420.41   -23243.437    1707.0183   -24950.456   -650.08486    410.09792    95.121199     14.50989    27.802004 
   56600    230.86887   -608.45531    204420.41   -23350.233    1675.7092   -25025.942   -1632.2083    412.48164    95.122022    14.509777    27.807981 
   56800    237.75514   -156.80297    204420.41   -23259.965    1725.6916   -24985.657   -7.4367086    412.24305    95.122935     14.51125    27.832738 
   57000    233.16822   -579.23085    204420.41   -23330.853    1692.3984   -25023.251   -1516.3669    413.53225    95.122405    14.513671     27.83212 
   57200    244.97418   -325.44218    204420.41   -23258.366    1778.0894   -25036.456   -610.01724     413.4816    95.121062    14.516228    27.832419 
   57400    239.20881   -458.39562    204420.41   -23307.647    1736.2427    -25043.89   -1056.3493    416.06581    95.121974     14.51656    27.821323 
   57600    234.26647    -133.6035    204420.41   -23332.721    1700.3699   -25033.091    68.735854    417.00618    95.120602    14.517932    27.833894 
   57800    240.24771   -430.31312    204420.41   -23241.561    1743.7834   -24985.344   -949.60411    419.00485     95.12003    14.518064    27.856278 
   58000    241.42474   -323.56399    204420.41   -23244.985    1752.3265   -24997.312   -580.15505    418.13928    95.120174    14.517844    27.875389 
   58200     240.7742   -359.65159    204420.41   -23183.273    1747.6048   -24930.877   -762.24816    419.74758    95.119175    14.518152    27.893512 
   58400    242.70352   -462.59086    204420.41   -23227.479    1761.6083   -24989.087   -1091.3777    421.09144    95.117873     14.52021    27.870971 
   58600    231.55403   -200.19947    204420.41   -23207.876    1680.6823   -24888.558   -172.69565    422.25484    95.117026     14.52235    27.856723 
   58800    245.35203   -256.15883    204420.41   -23182.803    1780.8319   -24963.635    -388.0407    423.42587    95.117169    14.524225    27.884454 
   59000     243.9538   -362.81575    204420.41   -23132.112    1770.6832   -24902.796   -761.55539    425.36857    95.118657    14.524714    27.903493 
   59200    234.77793   -376.03384    204420.41   -23248.278    1704.0822    -24952.36   -766.33376    426.90914    95.119092     14.52082    27.909017 
   59400    238.81339    -223.3216    204420.41   -23246.791    1733.3727   -24980.164   -248.49939    428.85024    95.119548    14.519892    27.940762 
   59600    236.01373   -243.21097    204420.41   -23270.316     1713.052   -24983.368   -341.81972    430.94131    95.119446    14.521445    27.923383 
   59800    240.18678   -307.63823    204420.41   -23209.661    1743.3411   -24953.002   -552.03435    431.09272    95.117332    14.524246    27.915984 
   60000     244.0485   -297.75469    204420.41   -23184.789    1771.3705    -24956.16   -482.99762    433.13165    95.117905    14.525713    27.912258 
   60200    241.78229   -219.64057    204420.41   -23229.348    1754.9217   -24984.269   -221.68906    435.23575     95.11608    14.529404    27.911096 
   60400    240.44352   -237.25097    204420.41   -23200.928    1745.2046   -24946.133   -297.49362    435.12342    95.114765     14.52846    27.906187 
   60600    241.23653   -548.73289    204420.41   -23198.142    1750.9605   -24949.103   -1440.2275        436.2     95.11198    14.528456    27.924467 
   60800    244.94365   -433.17325    204420.41   -23112.042    1777.8677    -24889.91    -987.4986     437.3743    95.112063    14.527064    27.932259 
   61000    244.30466   -243.94616    204420.41   -23185.906    1773.2298   -24959.136   -305.40124    438.33184    95.112789      14.5259    27.940018 
   61200    246.64129   -174.37229    204420.41   -23178.545    1790.1897   -24968.735   -60.562502    438.87077    95.113267    14.526377    27.950258 
   61400    242.32169   -365.52753    204420.41    -23204.99    1758.8368   -24963.827   -757.53785    440.21606    95.112731    14.525511    27.943931 
   61600      247.478   -311.15817    204420.41   -23246.648    1796.2628   -25042.911   -576.75527     442.3323    95.111743    14.523653    27.951867 
   61800    237.22827   -271.98312    204420.41   -23346.648    1721.8674   -25068.515   -395.00707    443.18797    95.109959    14.520893    27.938364 
   62000     243.9977   -306.92383    204420.41   -23284.295    1771.0018   -25055.297   -497.56312    444.45621    95.110028    14.523442    27.958801 
   62200    241.29178    -304.0283    204420.41   -23279.658    1751.3615    -25031.02    -535.8261    446.68071    95.110111    14.523885    27.954601 
   62400    234.39262   -613.76745    204420.41    -23290.29    1701.2855   -24991.576   -1594.8774    447.79158    95.109941    14.525464    27.946098 
   62600    237.54427   -319.40713    204420.41   -23310.778     1724.161   -25034.939    -600.4166    446.44053    95.108901    14.526758    27.950466 
   62800    232.28233   -353.21482    204420.41   -23349.041    1685.9684    -25035.01   -662.47233    447.66859    95.108645     14.52902    27.955791 
   63000     241.0722   -177.38962    204420.41   -23226.633    1749.7677     -24976.4   -98.377225    447.85086    95.108489    14.529378    27.987731 
   63200    235.77871   -422.71465    204420.41   -23261.543    1711.3461   -24972.889   -953.47484    449.40987    95.107909    14.529144      27.9876 
   63400    238.25834   -241.35404    204420.41   -23292.437    1729.3439   -25021.781   -296.92065    451.08845    95.108108    14.529901     27.98684 
   63600    231.94327    -262.1517    204420.41   -23303.858    1683.5074   -24987.366   -357.33276      452.664    95.107315    14.526318    27.976248 
   63800    233.60162   -263.01154    204420.41   -23331.423    1695.5442   -25026.967   -380.29607    452.89135    95.107698    14.528298    27.978134 
   64000    245.01039   -468.47725    204420.41   -23253.682    1778.3522   -25032.035   -1113.7262    452.84462    95.109011    14.529268    27.983501 
   64200    235.06962   -354.67085    204420.41     -23235.6    1706.1993   -24941.799      -716.15    453.73455    95.108313    14.531355    27.987993 
   64400    234.91173   -554.12448    204420.41   -23277.014    1705.0533   -24982.067   -1425.1254    455.66364    95.108647    14.531671    28.023299 
   64600    237.21479   -362.75484    204420.41   -23268.442    1721.7696   -24990.211   -777.08365    456.02721     95.10666     14.53371    28.035137 
   64800    234.99213   -402.19232    204420.41   -23264.781    1705.6369   -24970.418   -897.04565    455.04068    95.105524    14.538452    28.025013 
   65000    245.99365   -311.68881    204420.41   -23170.253     1785.489   -24955.742   -554.82373    457.11668    95.103839    14.540053    28.046566 
   65200    236.83092   -132.97309    204420.41   -23242.676    1718.9833   -24961.659    78.097129    458.94179    95.102454    14.538567    28.054443 
   65400    241.22064   -373.58866    204420.41   -23277.966    1750.8451   -25028.811   -800.28898     459.7478     95.10207    14.538151    28.047328 
   65600    247.47767   -475.76883    204420.41   -23212.532    1796.2604   -25008.792   -1140.8667    461.97589    95.100594    14.538952    28.055123 
   65800    233.49373   -198.63896    204420.41   -23252.931    1694.7611   -24947.692   -184.07028    462.35454    95.101109    14.539076    28.033816 
   66000    239.76973   -207.09046    204420.41   -23268.604     1740.314   -25008.918   -188.89033    463.16603     95.09994    14.537356    28.036111 
   66200    236.97662   -534.66634    204420.41   -23268.672    1720.0409   -24988.712   -1329.4814    465.38829    95.100374    14.537011    28.026865 
   66400    238.37965   -224.66921    204420.41   -23251.728    1730.2245   -24981.952   -247.63728    465.97303    95.099073    14.537897    28.050897 
   66600    235.17284   -301.49961    204420.41   -23303.027    1706.9486   -25009.975   -517.94629    467.88163    95.097689    14.533696    28.054301 
   66800    236.10658   -342.80859    204420.41   -23290.982    1713.7259   -25004.707   -644.28785    469.53064    95.098123    14.529949    28.072336 
   67000    231.63791   -267.18089    204420.41   -23393.247    1681.2911   -25074.538   -435.26261    469.21268    95.096846    14.528072    28.068704 
   67200    235.29979   -383.51666    204420.41   -23304.067      1707.87   -25011.937   -772.93211    468.64843    95.097832     14.52909    28.079186 
   67400    238.98175   -281.49314    204420.41   -23233.869    1734.5947   -24968.464   -453.50796    469.32602    95.095222    14.529013    28.091724 
   67600     241.1079   -329.60291    204420.41   -23168.844    1750.0268    -24918.87   -600.13334    471.02297    95.096326    14.527224    28.082695 
   67800    240.95758    -596.5233    204420.41   -23173.419    1748.9358   -24922.354   -1558.9501    473.57457    95.095691    14.524564    28.090977 
   68000    236.09508   -328.82103    204420.41   -23218.968    1713.6424   -24932.611   -626.07015    475.61067    95.094052    14.524014    28.092623 
   68200    243.07697   -277.64789    204420.41   -23194.008    1764.3189   -24958.327   -477.36776    478.44972    95.094301    14.522996    28.069128 
   68400    238.73204   -341.28503    204420.41   -23146.017    1732.7822   -24878.799   -627.97028    479.99909    95.094839      14.5221    28.037716 
   68600    235.22763   -356.04636    204420.41   -23203.414    1707.3462    -24910.76   -771.33456    481.52219    95.096644    14.524423    28.017263 
   68800    240.16736   -432.39229    204420.41   -23151.406    1743.2001   -24894.606   -942.51542    482.66984     95.09697     14.52793    28.025972 
   69000    243.25261   -119.28569    204420.41   -23190.814    1765.5937   -24956.408     135.8711    484.56951     95.09676     14.52819    28.023786 
   69200    236.87093   -290.56359    204420.41   -23299.598    1719.2737   -25018.872   -475.48652    484.31491    95.097828    14.527675    28.044577 
   69400    238.40856   -318.06262    204420.41   -23299.336    1730.4343    -25029.77   -552.81339     487.2805    95.097715    14.528334    28.055492 
   69600    245.66104   -362.95635    204420.41   -23177.127    1783.0748   -24960.202   -729.83016    489.86088     95.09847    14.530982    28.049681 
   69800    242.91888   -386.55872    204420.41   -23245.876    1763.1714   -25009.048   -810.80882    491.83288    95.096708    14.532142    28.062117 
   70000    239.50837   -295.83883    204420.41   -23301.392     1738.417   -25039.809   -493.84611    495.14377    95.096479    14.534363    28.046623 
   70200    241.42759   -347.59908    204420.41   -23202.788    1752.3472   -24955.135   -680.28157    495.58121    95.098006    14.536821    28.041548 
   70400    241.94078   -367.61217    204420.41   -23186.039    1756.0721   -24942.111   -699.92327    496.34893    95.096285    14.538808    28.041849 
   70600    236.63368   -421.61542    204420.41   -23214.072    1717.5517   -24931.623   -937.04105    498.50956    95.095081    14.540823    28.041271 
   70800    235.32461   -286.26242    204420.41    -23212.39    1708.0501    -24920.44   -460.12445    497.63149    95.094732    14.540603    28.024137 
   71000     237.3777   -399.99192    204420.41   -23247.191     1722.952   -24970.143   -857.48049    497.79285    95.094421    14.538975    28.015673 
   71200    237.86382    -590.5191    204420.41   -23209.242    1726.4804   -24935.722   -1520.9488    500.08806    95.093653     14.53917    28.013079 
   71400    242.19175   -441.55167    204420.41   -23238.085    1757.8937   -24995.979   -1009.7741     501.3088    95.094613    14.541431    28.015323 
   71600    244.28018   -252.33979    204420.41   -23181.271    1773.0521   -24954.323   -383.42685    501.23407    95.093703    14.540651    28.014667 
   71800    243.06037   -328.17511    204420.41   -23278.217    1764.1984   -25042.416   -610.33611    502.14147    95.096374    14.539417    28.034649 
   72000    236.56174   -324.38772    204420.41   -23327.343    1717.0296   -25044.372   -589.35417    502.68523     95.09733    14.538898    28.030932 
   72200    245.90809   -421.01229    204420.41   -23149.585    1784.8679   -24934.453   -919.89781    505.09518    95.095816    14.538452    28.021967 
   72400     238.8386   -419.71396    204420.41    -23159.14    1733.5556   -24892.695   -910.20821    505.94359    95.096292    14.538075     28.01769 
   72600    245.41381   -321.97914    204420.41   -23166.182    1781.2803   -24947.462   -576.44214    504.84956     95.09674    14.541665     28.00515 
   72800    239.59646   -554.35325    204420.41    -23198.71    1739.0564   -24937.766   -1426.7606    506.24868    95.096423    14.539966    27.987807 
   73000    235.02185   -336.29521    204420.41   -23215.036    1705.8526   -24920.889   -648.39634    508.88027    95.096951    14.537027    27.973539 
   73200    243.52427   -406.71019    204420.41   -23173.449    1767.5655   -24941.015   -839.36141    510.26406    95.099496    14.534271       27.973 
   73400    241.55095   -499.71679    204420.41   -23168.403    1753.2426   -24921.645   -1236.0062    513.50061    95.099182    14.533815    27.950087 
   73600    240.83255   -441.19771    204420.41   -23232.803    1748.0283   -24980.831   -1002.1042    516.43496    95.097537    14.535505    27.951471 
   73800    230.25296   -392.68314    204420.41   -23324.147    1671.2387   -24995.386   -817.57531    516.96691    95.095498    14.538671    27.954871 
   74000    239.90777   -411.67392    204420.41   -23280.216     1741.316   -25021.532   -905.32035    517.28583    95.094788    14.539253    27.969606 
   74200    240.89514   -329.32712    204420.41   -23166.074    1748.4826   -24914.557   -615.62145    519.04235    95.095282    14.542375    27.985613 
   74400    239.44166   -366.45944    204420.41   -23175.119    1737.9328   -24913.052   -780.70636    520.16348    95.096768    14.544508    27.978333 
   74600    233.76351   -144.46928    204420.41   -23192.849    1696.7193   -24889.568    6.0481488    522.23691    95.098001    14.547434    27.976661 
   74800    242.42162   -122.80783    204420.41   -23247.266    1759.5622   -25006.828    114.43718    524.22142    95.097721    14.551253    27.990983 
   75000     236.5951   -463.19385    204420.41   -23227.666    1717.2717   -24944.938   -1062.4155    524.65922     95.09729    14.551034    28.012813 
   75200    239.47466   -314.32708    204420.41   -23147.687    1738.1723   -24885.859   -562.35398    524.49103    95.098079    14.553176     28.01904 
   75400      238.229   -521.88706    204420.41   -23264.316     1729.131   -24993.447   -1289.6916    524.39039    95.097572    14.554516    28.028255 
   75600    237.68569   -444.10784    204420.41   -23235.987    1725.1875   -24961.174   -1037.9631    524.61147    95.094352    14.556181     28.03202 
   75800    251.14279   -240.48678    204420.41   -23156.531    1822.8628   -24979.394   -322.96037    526.19335     95.09328    14.554976    28.033746 
   76000    237.59375   -293.35063    204420.41   -23124.512    1724.5201   -24849.032   -528.50043    527.00178    95.093054    14.557013    28.016078 
   76200    237.66657   -237.98092    204420.41   -23263.215    1725.0487   -24988.263   -332.47602    527.74002    95.093719    14.557873    28.035514 
   76400    236.96254   -428.06333    204420.41   -23236.855    1719.9387   -24956.794   -973.27636    528.36214    95.094545    14.553651    28.044828 
   76600    243.35148   -243.71099    204420.41   -23209.998    1766.3114   -24976.309   -321.33574    530.95387    95.094233     14.55224     28.04923 
   76800    241.74697   -325.77663    204420.41   -23211.541    1754.6654   -24966.206   -616.16883    534.05579    95.094964    14.553849    28.046775 
   77000    242.70317     -137.763    204420.41   -23227.188    1761.6057   -24988.794    51.013844    537.02373    95.095068    14.556176    28.033788 
   77200     236.9666   -278.46762    204420.41   -23196.359    1719.9681   -24916.328   -441.70183    540.58181    95.095546    14.553842    28.043408 
   77400    234.62208   -373.56419    204420.41   -23153.413     1702.951   -24856.364   -798.82771    546.49876    95.094751    14.551306    28.023714 
   77600    244.17835   -244.69107    204420.41   -23188.588     1772.313   -24960.901   -364.92647    545.32651    95.094325    14.548451     28.02937 
   77800    235.88978   -242.41479    204420.41   -23228.026    1712.1523   -24940.178   -311.57907    545.74665      95.0931    14.546716    28.043036 
   78000    239.59189   -342.64832    204420.41   -23227.778    1739.0233   -24966.802   -689.27977    550.32004    95.092081    14.546019    28.017261 
   78200    237.16866   -363.52415    204420.41   -23263.076    1721.4347   -24984.511   -724.16379    552.88346    95.092253    14.545621    28.026592 
   78400    240.53732   -431.81133    204420.41   -23253.864    1745.8854   -24999.749   -981.01594    550.93747    95.093377    14.545206    28.022703 
   78600    242.61747   -371.06392    204420.41   -23269.833    1760.9837   -25030.817   -756.53155       551.81    95.091462    14.543456    28.023966 
   78800    245.76385   -446.63359    204420.41   -23250.262     1783.821   -25034.083   -1028.9725    550.40043     95.09141    14.542656    28.000658 
   79000    240.44893   -601.31423    204420.41   -23276.018    1745.2438   -25021.262   -1580.9196    549.33805    95.093056    14.543641    27.970202 
   79200    241.11205   -311.28648    204420.41   -23203.852     1750.057   -24953.909   -566.51455     548.7284    95.093155    14.548231    27.961072 
   79400    242.00804   -314.35481    204420.41   -23203.611    1756.5603   -24960.171   -561.54266    550.38577    95.092804    14.550409    27.965209 
   79600     235.3793   -389.19418    204420.41    -23282.63    1708.4471   -24991.077   -833.73165    554.35433    95.092322    14.547912    27.976307 
   79800    239.90211   -355.79184    204420.41   -23274.532    1741.2749   -25015.807   -748.30199    557.68995    95.094103    14.548791     27.98834 
   80000    235.60849    -290.8504    204420.41   -23295.619    1710.1106   -25005.729   -519.97524    561.30178    95.094339    14.549596    27.977923 
   80200     235.9123   -379.42293    204420.41   -23286.156    1712.3158   -24998.472    -804.5112    563.21259    95.093612      14.5466    27.961164 
   80400    240.50752   -215.67405    204420.41   -23310.551    1745.6691    -25056.22   -248.67221    567.43364    95.091553    14.546483    27.953419 
   80600    238.71827   -224.30063    204420.41   -23289.674    1732.6822   -25022.356    -223.3935     567.3363    95.090921    14.543853    27.933606 
   80800    238.58267   -298.43748    204420.41   -23238.332     1731.698    -24970.03   -512.57114    567.84715    95.089142    14.544443    27.922169 
   81000    239.76191    -277.6481    204420.41    -23261.09    1740.2573   -25001.348   -427.05315    566.53671    95.089556     14.54444    27.936864 
   81200    240.07965   -382.75749    204420.41   -23209.845    1742.5635   -24952.408   -841.12496    568.66524    95.090669    14.543916    27.928597 
   81400    241.05435   -231.60056    204420.41   -23189.617    1749.6382   -24939.255   -309.87787    568.35674    95.092378     14.54076    27.904538 
   81600    235.65818   -322.66521    204420.41   -23282.607    1710.4713   -24993.079   -613.45116    567.96674    95.092368     14.54088    27.899934 
   81800    233.50341   -465.76625    204420.41   -23329.624    1694.8314   -25024.455   -1089.4461    568.45169    95.090729    14.541032    27.886459 
   82000    236.02324   -257.50122    204420.41   -23259.546     1713.121   -24972.667   -391.87981     568.1053    95.090022    14.539558    27.872015 
   82200    244.74719   -192.00301    204420.41    -23183.57    1776.4418   -24960.012   -129.95788     569.3207    95.090533     14.53988    27.870443 
   82400    241.05285   -296.96322    204420.41   -23207.067    1749.6273   -24956.694   -555.39685    572.18197    95.087966    14.544586     27.88009 
   82600    248.68068   -445.59894    204420.41   -23129.762    1804.9921   -24934.754   -1032.9568    573.10065    95.088191    14.546398    27.889394 
   82800    236.06134   -377.13878    204420.41   -23233.176    1713.3975   -24946.573   -771.52258     574.0348    95.089342    14.545938     27.89385 
   83000    240.68339   -230.12533    204420.41   -23123.331    1746.9456   -24870.276   -283.28281     574.5746    95.089241    14.543664    27.917984 
   83200    246.15238   -257.71991    204420.41    -23182.92    1786.6411   -24969.561   -404.96277    575.85078    95.090179    14.544429    27.928611 
   83400    239.19625   -470.27288    204420.41   -23211.171    1736.1516   -24947.323   -1103.1773    576.80697    95.090509    14.543676    27.938612 
   83600     238.6807   -266.48429    204420.41   -23353.585    1732.4096   -25085.995   -427.40759    578.03709    95.091486    14.541796    27.944575 
   83800    240.16737   -210.85272    204420.41   -23323.433    1743.2002   -25066.633   -197.63455    579.40384    95.091839    14.542436    27.956301 
   84000    240.23739   -427.14722    204420.41   -23319.717    1743.7084   -25063.426   -961.58232    583.30532    95.092405    14.542631    27.934177 
   84200    239.18785   -306.56724    204420.41   -23277.608    1736.0906   -25013.699   -525.88589    586.03461    95.093968    14.542457    27.942269 
   84400    237.56324   -286.91923    204420.41   -23353.483    1724.2988   -25077.782    -482.4718    589.90877     95.09493    14.543717    27.925953 
   84600     236.7507   -356.25075    204420.41   -23271.367    1718.4011   -24989.768   -716.33926    592.42771    95.094285    14.540404    27.923124 
   84800     239.1245   -416.40405    204420.41   -23248.024    1735.6308   -24983.655   -953.40954    591.83588    95.093212     14.53968    27.931121 
   85000    239.22259   -367.25648    204420.41   -23212.646    1736.3427   -24948.989   -767.95516    589.27272    95.092209    14.539074    27.947856 
   85200     241.6911   -302.47115    204420.41   -23211.527    1754.2598   -24965.787    -538.3383    587.39743    95.089446    14.539499    27.965358 
   85400    226.66202   -546.47216    204420.41   -23297.584    1645.1747   -24942.758   -1376.9166    589.73015    95.086354    14.542837    27.967532 
   85600    238.85702   -440.06144    204420.41   -23228.527    1733.6894   -24962.217   -1018.3373     593.3248    95.085965     14.54195    27.975069 
   85800    242.00156   -172.85205    204420.41   -23282.115    1756.5133   -25038.628   -62.579923    593.06454    95.085718    14.540626     27.98267 
   86000    235.90443   -426.84435    204420.41   -23214.557    1712.2586   -24926.815   -936.23091    595.60951    95.084219    14.541129    27.998258 
   86200    237.96987   -301.66652    204420.41   -23199.365    1727.2502   -24926.615   -541.75266    593.74985    95.084586     14.53933    28.002244 
   86400    240.74203   -360.05955    204420.41   -23283.788    1747.3712   -25031.159   -688.79153    591.46538    95.083407    14.539329    27.970246 
   86600    244.07731   -368.90237    204420.41   -23227.518    1771.5796   -24999.097   -766.16749    592.34198    95.081429    14.540739    27.976585 
   86800    235.70011   -610.59923    204420.41   -23293.989    1710.7757   -25004.764   -1596.0934    594.61024    95.078184    14.543666    27.992457 
   87000    238.86329   -402.07549    204420.41   -23207.227    1733.7348   -24940.961   -932.72362    595.09944    95.078392    14.546627    28.005397 
   87200    246.52058   -162.46924    204420.41   -23154.244    1789.3135   -24943.557    -40.49813    594.16716    95.079698    14.547603    27.997308 
   87400    230.41416   -427.31921    204420.41   -23278.395    1672.4087   -24950.803    -952.9124    596.04058    95.079403    14.547595    28.006847 
   87600     245.2948   -248.38056    204420.41   -23179.693    1780.4165   -24960.109   -354.46316    599.50503    95.080281    14.550315    28.003924 
   87800    239.29864   -255.66922    204420.41   -23271.203    1736.8947   -25008.098   -372.57899    600.45821    95.078061    14.553097    27.989698 
   88000    235.79892   -446.92387    204420.41   -23288.009    1711.4928   -24999.502   -1015.5714    602.58317    95.076652    14.556575    27.979703 
   88200    237.39917   -447.97669    204420.41   -23310.798    1723.1079   -25033.906   -1036.1511    604.07877    95.077439    14.557904    27.957774 
   88400    244.22665   -325.89129    204420.41   -23267.766    1772.6636    -25040.43   -615.72876    603.72365    95.078082    14.558847     27.93169 
   88600    237.57014   -253.53231    204420.41   -23321.024    1724.3488   -25045.373   -386.13185    602.56321    95.080029    14.559452     27.92594 
   88800    232.58371   -288.48697    204420.41   -23296.029     1688.156   -24984.185   -451.94682    602.90136    95.078921    14.561143    27.940602 
   89000    239.42565   -419.53171    204420.41   -23229.481    1737.8166   -24967.298   -965.03276    602.55837    95.079022    14.561784    27.942427 
   89200    242.05506   -171.89484    204420.41   -23247.001    1756.9016   -25003.903   -51.768283    600.83972    95.079128    14.563996    27.950427 
   89400    240.34163   -471.92341    204420.41   -23193.827     1744.465   -24938.292   -1135.3475    601.09615    95.077428    14.563582    27.958101 
   89600    229.95371   -320.12935    204420.41   -23321.396    1669.0667   -24990.463   -616.91864    599.76362    95.078942    14.561372    27.950038 
   89800    239.72734   -445.61941    204420.41   -23210.682    1740.0063   -24950.688   -1030.9737    602.01332    95.077979    14.559892    27.949563 
   90000    239.04193   -437.66607    204420.41   -23184.724    1735.0314   -24919.755   -987.06894    601.63092    95.078677    14.558577    27.949896 
   90200    236.78916   -213.11271    204420.41   -23185.398    1718.6802   -24904.078   -200.62754    602.54735     95.07808    14.558712    27.946666 
   90400    242.11798   -391.37321    204420.41   -23168.928    1757.3583   -24926.286   -865.07804    605.08294     95.07829     14.55779    27.950291 
   90600    242.62865   -515.97401    204420.41   -23224.367    1761.0648   -24985.432   -1298.1026    606.51553    95.079749    14.555505    27.940473 
   90800    244.04261   -236.85409    204420.41   -23243.958    1771.3278   -25015.286   -302.41585    606.12712    95.081733    14.554323    27.946746 
   91000    236.15775   -322.00367    204420.41   -23291.562    1714.0973    -25005.66   -628.59499    606.80103    95.083908    14.555513    27.966265 
   91200    241.48358   -258.90583    204420.41   -23345.331    1752.7536   -25098.084   -418.72054      606.819     95.08377    14.556149    27.968798 
   91400     232.1352   -215.68834    204420.41   -23283.048    1684.9005   -24967.949   -259.11843    610.50066    95.082349    14.556167    27.954943 
   91600    241.65326   -392.48898    204420.41   -23163.759    1753.9852   -24917.744   -850.54986    612.48331    95.081146    14.556495     27.91121 
   91800    240.79846   -294.84149    204420.41   -23168.197    1747.7809   -24915.977   -477.76659    613.49171    95.081821    14.556488    27.909667 
   92000    235.26686   -305.24759    204420.41    -23145.44    1707.6309   -24853.071   -536.34797    615.56272    95.081232    14.556818    27.884604 
   92200    247.50227   -300.79546    204420.41   -23148.921    1796.4389    -24945.36   -521.19361     616.5063    95.082115    14.555522    27.898117 
   92400    236.96254   -222.75521    204420.41   -23155.063    1719.9387   -24875.002   -293.26656    620.03453    95.081932    14.555209    27.898468 
   92600    244.19867   -411.47665    204420.41   -23110.073    1772.4605   -24882.533   -915.39245    621.55921    95.083108    14.557891    27.904745 
   92800    244.67862   -322.24778    204420.41   -23228.643    1775.9441   -25004.587   -622.18446    621.60353    95.082594    14.559991    27.900426 
   93000    242.29029   -284.95107    204420.41   -23234.694    1758.6089   -24993.303   -457.55676    624.02721    95.082032     14.56113    27.923716 
   93200     240.4347   -339.53175    204420.41   -23212.189    1745.1406    -24957.33   -656.32757    628.22393    95.081372    14.563173    27.906244 
   93400    237.20381   -292.65296    204420.41    -23282.81    1721.6899     -25004.5   -467.53933    627.90482    95.081086      14.5611    27.910435 
   93600    240.66014   -210.16844    204420.41    -23255.24    1746.7769   -25002.017   -191.86886    627.04091    95.081173    14.558459    27.905438 
   93800    232.62705   -442.96172    204420.41   -23289.356    1688.4705   -24977.827   -1016.4414     629.1343    95.080857    14.556018    27.920665 
   94000    237.31378    -498.5691    204420.41   -23278.367     1722.488   -25000.855   -1213.6422    629.55631    95.080254    14.553671    27.917235 
   94200    241.81476   -144.36154    204420.41   -23186.623    1755.1574   -24941.781    10.229376     629.2542    95.080701    14.554159    27.926054 
   94400    233.70362   -435.59832    204420.41   -23201.807    1696.2846   -24898.091   -973.35215    631.36342    95.079146    14.553205    27.917728 
   94600    237.98525   -438.45513    204420.41   -23200.927    1727.3618   -24928.289   -997.94305    635.06911    95.078987    14.551521    27.908487 
   94800    236.31086   -422.82707    204420.41   -23179.633    1715.2086   -24894.842   -963.90195    635.43742    95.078924    14.551634    27.904541 
   95000    233.53209   -242.98488    204420.41   -23235.232    1695.0395   -24930.271   -330.15961    634.01856    95.080816     14.55027    27.921046 
   95200     235.7724   -340.53502    204420.41   -23213.888    1711.3003   -24925.189   -678.79399    635.13259    95.080931    14.548128    27.927893 
   95400    238.90149   -252.31842    204420.41   -23170.066    1734.0121   -24904.078   -362.24911    635.50078    95.080534    14.550484    27.910185 
   95600    242.50688   -214.97597    204420.41    -23163.59     1760.181   -24923.771   -229.13548    637.52826    95.081015     14.54909    27.878356 
   95800    233.09698   -596.50772    204420.41   -23194.015    1691.8814   -24885.896   -1566.8886    640.95738    95.081814    14.547744    27.904121 
   96000    239.77541   -281.87413    204420.41   -23173.905    1740.3552    -24914.26   -482.56258    642.61649    95.081652    14.548888    27.926213 
   96200    242.52782   -461.91833    204420.41   -23118.473     1760.333   -24878.806   -1094.6562    645.52788    95.080693    14.550876    27.898082 
   96400     237.2298   -351.53845    204420.41   -23203.925    1721.8785   -24925.803   -694.91705    646.70376    95.081782    14.551597    27.895888 
   96600    231.16864   -386.82602    204420.41   -23201.948     1677.885   -24879.833   -815.38426    648.45073    95.082156    14.551863    27.912238 
   96800    247.10888   -313.05285    204420.41   -23158.025    1793.5836   -24951.608   -557.14914    650.50773    95.083401    14.552284    27.920124 
   97000    235.23016   -329.38908    204420.41   -23206.476    1707.3646   -24913.841   -622.71381    650.68688    95.082292    14.555379    27.928986 
   97200     235.6212   -257.22225    204420.41   -23198.229    1710.2029   -24908.432   -408.61356    651.35682    95.083036     14.55693    27.917929 
   97400    238.82316   -369.21287    204420.41   -23185.902    1733.4436   -24919.346   -787.00422    653.97206    95.083406    14.559121    27.903986 
   97600    246.33316   -223.36067    204420.41   -23135.037    1787.9532    -24922.99   -243.26215    653.54872    95.083289    14.557481    27.880008 
   97800    242.00813   -426.16027    204420.41   -23145.142    1756.5609   -24901.703   -934.48943    653.96622     95.08471    14.559793    27.860006 
   98000    237.55505   -400.75838    204420.41    -23182.41    1724.2393    -24906.65   -836.06303    654.34057    95.086169    14.559201    27.860428 
   98200    239.66101   -403.90813    204420.41   -23197.997    1739.5249   -24937.522   -878.31623    657.10526    95.087582    14.557913    27.849811 
   98400    241.18124   -274.34052    204420.41   -23117.457    1750.5592   -24868.016   -434.27328     661.6991    95.089026    14.557522    27.839602 
   98600    239.59743   -275.91502    204420.41   -23181.894    1739.0634   -24920.958   -439.13586    662.08905    95.090001    14.558235    27.827972 
   98800     245.3696   -419.25242    204420.41   -23182.587    1780.9594   -24963.546   -904.53171    664.27144    95.088929    14.557365    27.811209 
   99000     238.9732   -228.39621    204420.41   -23250.531    1734.5326   -24985.064   -279.35614    663.89672    95.087723    14.558111    27.788527 
   99200    240.95854   -245.91139    204420.41     -23237.2    1748.9428   -24986.143   -326.30891    665.77391      95.0868    14.556749    27.783654 
   99400    239.91732   -503.75175    204420.41   -23219.958    1741.3853   -24961.343   -1224.0575    668.59718    95.087022    14.556481    27.785512 
   99600     241.9296   -276.92763    204420.41   -23225.504     1755.991   -24981.495   -461.19407     668.0539    95.085816    14.558669    27.808466 
   99800    245.45481   -335.44734    204420.41   -23235.924    1781.5779   -25017.502   -654.34749    667.12658    95.086603    14.558054    27.800181 
  100000     245.4084   -288.21425    204420.41    -23237.11    1781.2411   -25018.352   -475.50201    666.17864    95.088898    14.555013    27.780606 
  100200    239.26905   -256.40377    204420.41   -23280.933    1736.6799   -25017.613   -372.96217    668.16498    95.087341    14.555203    27.783299 
  100400     240.6739   -391.82919    204420.41   -23211.515    1746.8767   -24958.391   -844.31768     671.2718    95.086397    14.555004    27.793734 
  100600    238.86629    -79.20198    204420.41   -23226.162    1733.7566   -24959.919    232.54624    670.96934    95.084663    14.553384    27.788111 
  100800    238.15966   -308.46766    204420.41   -23278.963    1728.6277   -25007.591   -549.10987    671.20937    95.083333    14.552717    27.793226 
[...]
 5175800    224.71181   -20.257296    204420.41   -25552.083    1631.0195   -27183.102     483.4015    10015.828    95.296281    15.928052    27.959807 
 5176000    222.81479   -272.04073    204420.41    -25570.36    1617.2505   -27187.611   -411.64074    10021.539    95.295718    15.928949    27.959458 
 5176200    221.87408   -48.763656    204420.41   -25584.208    1610.4225    -27194.63    291.46434    10015.215    95.296113    15.930068    27.964991 
 5176400    227.11705   -208.24958    204420.41   -25525.041    1648.4774   -27173.518   -195.71841    10021.065    95.295773    15.930348    27.974777 
 5176600    229.69935   -108.80504    204420.41    -25458.47    1667.2204    -27125.69    96.638211    10012.942     95.29458    15.931224    27.965254 
 5176800    226.28281   -244.31048    204420.41   -25506.915    1642.4223   -27149.337    -316.8587    10020.804    95.294495    15.931679    27.964386 
 5177000    234.95737   -118.52829    204420.41    -25486.04    1705.3846   -27191.425    106.19937    10014.909     95.29398    15.931128     27.98014 
 5177200    229.50999   -179.79289    204420.41   -25460.417    1665.8461   -27126.263   -96.337296    10018.041    95.293174    15.930668    27.967064 
 5177400    235.89799    -246.3338    204420.41   -25421.991    1712.2119   -27134.203   -358.38893    10021.045    95.293936    15.928747    27.978069 
 5177600    228.78349   -107.14943    204420.41   -25521.569    1660.5729   -27182.142    112.02173    10013.556    95.293821    15.927768    27.970942 
 5177800     219.7757   -277.68488    204420.41   -25544.628    1595.1919    -27139.82   -467.63139    10023.348    95.293447    15.928193    27.971983 
 5178000    226.60729    -45.88386    204420.41    -25543.75    1644.7774   -27188.527    325.61295    10013.712    95.293966    15.928287    27.965434 
 5178200     223.0695   -237.64434    204420.41   -25530.629    1619.0992   -27149.728   -325.70027    10022.134    95.292704    15.927365    27.955033 
 5178400    226.10034   -82.085263    204420.41   -25535.549    1641.0979   -27176.647    234.77223     10015.41    95.292676    15.927018    27.970082 
 5178600    228.57566    -233.5958    204420.41    -25511.88    1659.0644   -27170.944   -262.89047    10020.343    95.292235    15.926965     27.97097 
 5178800    230.56537   -90.482956    204420.41   -25508.517    1673.5063   -27182.023    162.25272    10014.954    95.291449    15.927742    27.970346 
 5179000    225.13405   -187.15406    204420.41   -25532.287    1634.0842   -27166.371   -83.401976    10018.222    95.291268    15.926406    27.965976 
 5179200    229.93612   -173.00251    204420.41   -25534.424     1668.939   -27203.363   -67.740139    10020.777    95.291405    15.927129    27.967412 
 5179400    233.42146   -21.920409    204420.41   -25484.283    1694.2366    -27178.52    423.66664    10015.537    95.291126    15.927734    27.965027 
 5179600    226.44619   -277.84229    204420.41   -25531.522    1643.6082    -27175.13   -471.68845    10021.642    95.291252    15.927817    27.969059 
 5179800    221.56217   -86.031876    204420.41   -25519.418    1608.1586   -27127.577    194.39483    10012.443     95.29069    15.926827    27.969109 
 5180000     219.3384   -265.67157    204420.41   -25615.113    1592.0178   -27207.131   -419.87937    10022.332     95.28999    15.925575    27.955021 
 5180200     222.4229   -27.780234    204420.41   -25593.515     1614.406   -27207.921    401.17047    10015.549    95.290206    15.924934    27.957052 
 5180400    226.26619   -271.80911    204420.41   -25528.808    1642.3017   -27171.109   -479.76207    10020.808    95.289695    15.924675    27.960633 
 5180600    229.24691   -147.65907    204420.41    -25516.65    1663.9365   -27180.586   -32.156586     10018.36    95.289654    15.925081    27.967801 
 5180800    225.96341   -72.195089    204420.41   -25554.624     1640.104   -27194.728    260.35033     10016.75    95.288426    15.925139     27.95716 
 5181000    221.69394   -203.36379    204420.41   -25594.688    1609.1151   -27203.803   -194.94191    10020.587    95.288405    15.924669    27.956161 
 5181200    221.91523   -50.770486    204420.41   -25571.785    1610.7212   -27182.507    309.35272    10013.794    95.287216    15.924539      27.9539 
 5181400    230.45048   -290.26999    204420.41   -25485.259    1672.6724   -27157.932   -503.30248    10022.056    95.287179    15.923662    27.962071 
 5181600    216.09429   -108.95539    204420.41   -25606.493    1568.4712   -27174.964    125.85745    10014.942    95.287912    15.923209    27.955099 
 5181800    227.57807   -203.35394    204420.41   -25485.304    1651.8237   -27137.128    -187.7447    10019.802    95.286426    15.923336    27.965882 
 5182000    226.54166   -86.966104    204420.41   -25518.681    1644.3011   -27162.982    202.62119    10014.699    95.285293    15.924371    27.969564 
 5182200    225.72607   -279.94477    204420.41    -25486.78    1638.3813   -27125.161   -453.82152    10019.181     95.28409    15.923927    27.969056 
 5182400    221.08594   -149.85377    204420.41    -25559.26     1604.702   -27163.962   -35.351464    10017.655    95.284336    15.924302    27.954514 
 5182600    230.36034   -107.77757    204420.41   -25527.416    1672.0181   -27199.434    138.46822    10016.459    95.283656    15.924632     27.95876 
 5182800    220.81411   -206.55019    204420.41   -25498.496     1602.729   -27101.225   -233.39443    10021.471    95.283007    15.925348    27.962936 
 5183000    231.64273   -106.56528    204420.41   -25479.171    1681.3261   -27160.497    174.32381    10015.399    95.282727    15.927023    27.961766 
 5183200     228.5298   -289.80292    204420.41   -25492.754    1658.7315   -27151.485   -475.16425    10022.262    95.283258    15.929028    27.957297 
 5183400    218.59279   0.46265337    204420.41   -25623.946     1586.606   -27210.552    509.40662    10014.575    95.283839    15.929966    27.956191 
 5183600    220.68318   -288.43791    204420.41   -25600.668    1601.7787   -27202.447   -522.81623    10023.498    95.283736     15.93113     27.96728 
 5183800    224.37905   -25.443437    204420.41   -25575.878    1628.6043   -27204.482    431.25851    10015.605     95.28292    15.933795    27.968826 
 5184000    230.85176   -270.12632    204420.41   -25492.204     1675.585   -27167.789   -421.63327    10020.612    95.283239    15.935914    27.969176 
 5184200    227.57164   -138.35835    204420.41   -25509.308     1651.777   -27161.085     33.72334    10016.698    95.283201    15.936155     27.96434 
 5184400    234.32891   -143.04101    204420.41   -25507.526    1700.8231   -27208.349     16.02485    10018.943     95.28338    15.937548    27.961116 
 5184600    230.12125    -175.0904    204420.41    -25546.07    1670.2827   -27216.353   -71.337935    10017.747    95.283828    15.938735    27.975133 
 5184800    225.77922   -117.10537    204420.41   -25528.472    1638.7671    -27167.24    102.72222    10017.038    95.284048    15.940407    27.971503 
 5185000    229.55391   -260.89015    204420.41    -25521.02    1666.1648   -27187.185   -404.61186    10019.467     95.28485    15.942417    27.983645 
 5185200    222.92168   -64.941337    204420.41   -25586.225    1618.0263   -27204.251    261.03823    10013.836    95.284706    15.944314    27.974463 
 5185400    224.58972   -257.58565    204420.41   -25520.803    1630.1334   -27150.936   -407.17421    10020.263     95.28454    15.944775    27.976629 
 5185600    224.09556   -108.89124    204420.41   -25520.253    1626.5467     -27146.8    119.66429    10014.309    95.285683    15.945777    27.981302 
 5185800     225.3378   -280.25384    204420.41   -25502.624    1635.5631   -27138.187   -489.23744    10019.972    95.285261    15.947879    27.975936 
 5186000     225.5602   -137.86734    204420.41   -25506.633    1637.1774    -27143.81    41.554379    10014.373     95.28424    15.948902    27.976274 
 5186200    231.63842   -258.09044    204420.41    -25471.16    1681.2948   -27152.455   -361.08201    10020.649    95.282653    15.949683    27.958647 
 5186400    234.16173   -156.50573    204420.41   -25517.955    1699.6097   -27217.565   -1.5043164    10016.722    95.282062    15.949389    27.960299 
 5186600    223.69485   -210.66129    204420.41   -25511.555    1623.6382   -27135.193   -252.08884    10017.437    95.281831    15.950898    27.963716 
 5186800    229.92441   -158.53724    204420.41   -25528.147    1668.8541   -27197.001   -30.331318    10015.994    95.281478    15.952152     27.97063 
 5187000      224.944   -312.96182    204420.41   -25485.044    1632.7049   -27117.749   -574.17087    10018.484    95.281052    15.952451    27.962039 
 5187200    229.30023   -159.85678    204420.41    -25544.25    1664.3235   -27208.574   -24.482785    10017.508    95.281892    15.952988    27.962396 
 5187400    225.76786   -283.25544    204420.41   -25574.906    1638.6846   -27213.591   -503.56468    10018.248    95.281756    15.953623    27.965479 
 5187600    228.84764   -211.34367    204420.41   -25491.336    1661.0385   -27152.374   -232.47589    10018.628    95.282176    15.954744    27.970051 
 5187800    225.83826   -155.17263    204420.41   -25540.712    1639.1956   -27179.908    -13.19529    10019.252    95.282858    15.956786    27.970293 
 5188000    231.84438   -187.03155    204420.41   -25471.926    1682.7897   -27154.716   -155.13633    10017.949    95.283503    15.956972    27.964178 
 5188200    228.78887   -113.70248    204420.41   -25520.719     1660.612   -27181.331    124.11039    10019.293    95.284463    15.958555    27.971969 
 5188400    225.54905   -150.93378    204420.41    -25523.47    1637.0965   -27160.567   -15.516992    10021.101    95.284703    15.959503    27.962119 
 5188600    222.73382   -183.75781    204420.41   -25560.633    1616.6627   -27177.296   -112.22098    10018.575     95.28561    15.961009    27.972462 
 5188800    221.13122   -73.926769    204420.41   -25585.818    1605.0306   -27190.848    236.65531    10019.425    95.286214    15.962074     27.97511 
 5189000    230.38314   -162.28243    204420.41   -25549.454    1672.1836   -27221.637   -47.241012    10020.325    95.286394     15.96245    27.968024 
 5189200    216.32199   -144.18942    204420.41   -25639.102    1570.1239   -27209.226    19.167581    10017.275     95.28658    15.963646    27.967605 
 5189400    221.14491   -155.49201    204420.41   -25591.824      1605.13   -27196.954    0.3609335    10019.322    95.286904    15.966085    27.974522 
 5189600    227.77909   -138.64378    204420.41   -25525.691    1653.2827   -27178.974    28.081207    10018.247     95.28747    15.967561    27.964742 
 5189800    225.12366   -210.56413    204420.41   -25548.278    1634.0089   -27182.287   -222.28313    10020.197    95.288283     15.96847    27.968983 
 5190000    220.61136   -130.77146    204420.41   -25535.711    1601.2574   -27136.968    35.318315    10019.578    95.289073    15.970377    27.972537 
 5190200    225.64614   -196.73212    204420.41   -25559.724    1637.8012   -27197.525   -177.65892    10021.232    95.289044    15.972435    27.970612 
 5190400      229.054    -215.1077    204420.41   -25461.043    1662.5363    -27123.58   -247.23391    10018.403    95.289683    15.973919    27.970032 
 5190600     230.6313   -83.825321    204420.41   -25538.536    1673.9848   -27212.521    233.17586    10019.314    95.290776    15.975398    27.974981 
 5190800    229.48195   -216.99798    204420.41   -25497.964    1665.6425   -27163.606   -238.97879    10021.095    95.291978    15.976495    27.969927 
 5191000    229.89184    -156.6076    204420.41   -25530.009    1668.6176   -27198.627    2.0421659    10016.223    95.292817     15.97742    27.971358 
 5191200    222.28723   -212.45393    204420.41    -25528.92    1613.4213   -27142.342   -211.74384    10021.004    95.293081    15.977974    27.978947 
 5191400    229.37359    -96.02038    204420.41   -25520.782     1664.856   -27185.638    167.10819    10017.503    95.294088    15.978824    27.986493 
 5191600     223.9429   -303.33353    204420.41   -25537.111    1625.4386    -27162.55   -548.86844    10024.628    95.295787    15.979722    27.964047 
 5191800    224.71543   -116.47584    204420.41   -25488.911    1631.0459   -27119.957    96.775211    10016.186    95.297675     15.98245     27.96961 
 5192000    231.12196   -266.08736    204420.41   -25463.901    1677.5461   -27141.447   -431.52607    10024.984    95.298285    15.983129     27.97057 
 5192200    226.36464    -129.8087    204420.41    -25512.85    1643.0163   -27155.866    49.833813    10017.488    95.298519    15.982806    27.974617 
 5192400    227.43688   -270.03614    204420.41   -25521.079    1650.7989   -27171.878   -432.91619    10019.517    95.299856    15.983027    27.972703 
 5192600    222.67135   -200.24739    204420.41   -25555.993    1616.2093   -27172.202    -169.6196    10019.765    95.301126    15.982414    27.965789 
 5192800    230.35415   -161.04839    204420.41   -25506.482    1671.9732   -27178.455   -37.988791    10018.915    95.302053    15.984144    27.974061 
 5193000    224.60575   -199.99194    204420.41   -25563.444    1630.2497   -27193.694   -172.51492    10022.396    95.302457    15.984388    27.973403 
 5193200    231.28629   -187.46605    204420.41   -25497.718    1678.7389   -27176.457   -149.61344    10019.389     95.30408     15.98303    27.970408 
 5193400    225.88459   -251.58855    204420.41   -25503.538    1639.5319    -27143.07   -390.99707    10022.865    95.304318    15.982926    27.968654 
 5193600    229.63332   -240.26511    204420.41   -25483.169    1666.7412    -27149.91   -321.54325    10018.825    95.305493    15.983635    27.975588 
 5193800    227.21334   -291.43182    204420.41   -25509.738    1649.1763   -27158.915   -478.54242    10021.259    95.306472    15.983651     27.96855 
 5194000    219.01816   -162.80923    204420.41   -25622.155    1589.6935   -27211.848   -42.937983    10019.086    95.307621    15.983605    27.973277 
 5194200    226.50961    -174.3527    204420.41   -25569.352    1644.0685    -27213.42   -99.989378    10021.138    95.307536    15.984811     27.98521 
 5194400    226.88507   -144.97824    204420.41    -25511.87    1646.7936   -27158.664    46.117107    10018.982    95.307531    15.985025    27.974758 
 5194600    230.86063   -246.13923    204420.41   -25474.148    1675.6494   -27149.797    -358.7055    10021.694    95.307934    15.985733      27.9763 
 5194800    231.64783   -111.54352    204420.41   -25505.079     1681.363   -27186.442    154.68701    10019.777    95.308105    15.986204    27.978304 
 5195000    225.88344   -272.04528    204420.41   -25506.366    1639.5236   -27145.889   -420.51516    10020.088    95.309002    15.987724    27.974601 
 5195200    225.41003   -200.39802    204420.41   -25494.118    1636.0874   -27130.205   -228.59965    10018.229    95.309065    15.989683     27.98399 
 5195400    226.73293   -217.25899    204420.41   -25502.222    1645.6894   -27147.912   -214.48027    10020.449    95.310766    15.990966    27.976504 
 5195600    221.60939   -159.57491    204420.41   -25546.926    1608.5014   -27155.427   -50.103701    10018.066    95.311819    15.992096    27.982118 
 5195800    233.44664   -175.02847    204420.41   -25438.174    1694.4193   -27132.593   -98.184382      10021.1    95.312735     15.99433    27.979477 
 5196000     227.0166   -145.09376    204420.41   -25515.264    1647.7484   -27163.012     14.11438    10017.521    95.314913     15.99724    27.972335 
 5196200     228.5691   -218.40726    204420.41   -25531.751    1659.0168   -27190.767   -233.44744    10018.488    95.316466    15.998117    27.970577 
 5196400    227.48539   -235.33971    204420.41    -25526.58    1651.1509   -27177.731   -315.03713      10019.8    95.318609     16.00102    27.965042 
 5196600    226.73078   -183.14254    204420.41   -25502.918    1645.6738   -27148.591   -157.55994    10020.242    95.319376    16.002447    27.973281 
 5196800     227.3216   -189.05137    204420.41   -25497.232    1649.9621   -27147.194   -161.03718    10018.472     95.32011    16.003305    27.970189 
 5197000    233.99618   -196.18522    204420.41   -25464.862     1698.408    -27163.27   -165.82172    10018.764    95.320646    16.004181    27.971904 
 5197200    229.89651   -266.03327    204420.41   -25546.584    1668.6515   -27215.236   -415.96536     10017.33    95.321987     16.00538    27.972877 
 5197400    223.78159   -206.63692    204420.41   -25543.378    1624.2677   -27167.646   -233.45398    10016.989    95.323106    16.006293    27.981935 
 5197600    220.98319   -224.78128    204420.41   -25579.905    1603.9562   -27183.861    -279.0921    10019.671    95.324376    16.007815    27.976143 
 5197800    215.65918   -150.02015    204420.41   -25605.188    1565.3131   -27170.501    24.363276    10017.996    95.325378    16.007902    27.974955 
 5198000    229.32387   -165.02266    204420.41   -25483.085    1664.4951    -27147.58   -30.399482    10020.485    95.325741    16.008322     27.96938 
 5198200    232.45654   -147.27026    204420.41   -25490.967    1687.2329   -27178.199   -40.149434    10018.356    95.325169     16.00953    27.966568 
 5198400    225.83486   -227.72483    204420.41   -25555.586     1639.171   -27194.757   -286.62696    10020.268    95.326033    16.010383    27.970404 
 5198600     223.8805   -172.33689    204420.41   -25607.537    1624.9856   -27232.522   -95.476991     10019.81    95.326476    16.010863    27.969771 
 5198800    227.69542   -144.17759    204420.41   -25528.208    1652.6754   -27180.883    21.101926    10019.183    95.326984    16.011086    27.968888 
 5199000     230.1954   -208.04065    204420.41   -25467.923     1670.821   -27138.744   -187.61715    10021.513    95.328248    16.013036    27.969306 
 5199200    228.39176   -114.51173    204420.41   -25529.035    1657.7296   -27186.765    134.02526    10019.021    95.329681    16.016302    27.972647 
 5199400    230.33958   -235.79552    204420.41    -25518.86    1671.8675   -27190.728   -329.25646    10020.497    95.329897    16.017144    27.979562 
 5199600    229.76436    -190.0973    204420.41   -25504.845    1667.6923   -27172.538   -118.40524    10019.934    95.330418    16.017422    27.978063 
 5199800    227.87769   -200.91649    204420.41   -25524.926    1653.9983   -27178.925   -229.75413    10019.556     95.33103     16.01764    27.995175 
 5200000    231.74447   -219.06411    204420.41   -25475.597    1682.0645   -27157.661   -236.64672    10021.081    95.332367    16.018331    27.978362 
Loop time of 5609.72 on 64 procs for 5200000 steps with 8482 atoms

Performance: 800.896 ns/day, 0.030 hours/ns, 926.963 timesteps/s
100.0% CPU use with 64 MPI tasks x no OpenMP threads

MPI task timing breakdown:
Section |  min time  |  avg time  |  max time  |%varavg| %total
---------------------------------------------------------------
Pair    | 0.41287    | 1912.4     | 4257.5     |3700.6 | 34.09
Neigh   | 4.6464     | 227.45     | 522        |1140.8 |  4.05
Comm    | 111.77     | 1122.8     | 3526.2     |2949.6 | 20.02
Output  | 137.81     | 137.88     | 138.1      |   0.3 |  2.46
Modify  | 191.76     | 2150.1     | 5296.8     |4483.4 | 38.33
Other   |            | 59.13      |            |       |  1.05

Nlocal:    132.531 ave 259 max 0 min
Histogram: 16 0 1 7 8 0 2 14 6 10
Nghost:    805.328 ave 1118 max 520 min
Histogram: 14 6 9 3 0 4 2 3 19 4
Neighs:    0 ave 0 max 0 min
Histogram: 64 0 0 0 0 0 0 0 0 0
FullNghs:  13209.7 ave 28668 max 0 min
Histogram: 16 16 0 0 0 0 2 8 12 10

Total # of neighbors = 845420
Ave neighs/atom = 99.6722
Neighbor list builds = 560056
Dangerous builds = 0
write_data 		${DIR}/data.${NAME}_run
write_data 		run_8/data.${NAME}_run
write_data 		run_8/data.ibeam_cooling_8_run
Total wall time: 1:33:40
