
### Dimensions ###


### IMPORT ATOMS ###
read_data ../Box_Setup/data.Ibeam_240K
  orthogonal box = (0 0 0) to (189.989 26.9999 39.8504)
  16 by 2 by 2 MPI processor grid
  reading atoms ...
  8482 atoms
  reading velocities ...
  8482 velocities
group water type 2
2436 atoms in group water
group graphite type 1
6046 atoms in group graphite


# Define potential
#
pair_style          sw
pair_coeff * * MLC_e.sw C mW

# Add velocity/set timestep
#

fix		1 graphite setforce 0.0 0.0 0.0
velocity 	graphite set 0.0 0.0 0.0
velocity            water create ${START_TEMP} ${SEED} rot yes dist gaussian
velocity            water create 240 ${SEED} rot yes dist gaussian
velocity            water create 240 19095 rot yes dist gaussian
timestep            5.0

# Define output
#
compute 1 water msd
compute 2 water temp


thermo	            100
thermo_style custom step c_2 press vol etotal ke pe c_1[4] density

# Neighbor lists
#
neigh_modify        delay 0 every 1 check yes


# Set fixes
#
fix                 2 water momentum 10 linear 1 1 1 rescale
fix                 3 all nve
fix                 4 water temp/csvr ${START_TEMP} ${START_TEMP} 500.0 928347
fix                 4 water temp/csvr 240 ${START_TEMP} 500.0 928347
fix                 4 water temp/csvr 240 240 500.0 928347

# Run 0.05 ns equilibration
#
dump                1 all custom 100 ${DIR}/eq.${NAME}.dump id type x y z vx vy vz
dump                1 all custom 100 run_8/eq.${NAME}.dump id type x y z vx vy vz
dump                1 all custom 100 run_8/eq.ibeam_cooling_8.dump id type x y z vx vy vz
run                 10000
Neighbor list info ...
  update every 1 steps, delay 0 steps, check yes
  max neighbors/atom: 2000, page size: 100000
  master list distance cutoff = 6.67472
  ghost atom cutoff = 6.67472
  binsize = 3.33736, bins = 57 9 12
  1 neighbor lists, perpetual/occasional/extra = 1 0 0
  (1) pair sw, perpetual
      attributes: full, newton on
      pair build: full/bin/atomonly
      stencil: full/bin/3d
      bin: standard
Per MPI rank memory allocation (min/avg/max) = 3.381 | 4.313 | 4.753 Mbytes
Step c_2 Press Volume TotEng KinEng PotEng c_1[4] Density 
       0          240   -262.64038    204420.41   -23347.773    1741.9854   -25089.758            0   0.94632332 
     100    239.97579   -283.85599    204420.41   -23359.493    1741.8097   -25101.303   0.87369174   0.94632332 
     200    237.75825   -243.69173    204420.41    -23385.81    1725.7141   -25111.525    1.2996367   0.94632332 
     300    232.31107   -161.33277    204420.41   -23369.285     1686.177   -25055.462    1.6653178   0.94632332 
     400     239.9161   -186.84096    204420.41   -23370.952    1741.3764   -25112.328    1.9298146   0.94632332 
     500    237.06756   -403.62019    204420.41   -23349.569    1720.7009    -25070.27    2.5055881   0.94632332 
     600    237.89662   -264.33143    204420.41   -23263.027    1726.7185   -24989.745    2.8724494   0.94632332 
     700    239.61602   -346.56592    204420.41   -23267.402    1739.1983     -25006.6    3.2054825   0.94632332 
     800    247.25723   -255.31793    204420.41   -23250.851    1794.6603   -25045.511    3.4702275   0.94632332 
     900     243.4026   -276.42098    204420.41   -23289.478    1766.6824    -25056.16    3.8606884   0.94632332 
    1000    242.30301   -560.80499    204420.41   -23316.096    1758.7013   -25074.797    4.2153268   0.94632332 
    1100    239.63502   -338.41868    204420.41   -23288.731    1739.3363   -25028.067     4.571923   0.94632332 
    1200    241.89173   -316.65994    204420.41   -23281.823    1755.7161   -25037.539    4.9154465   0.94632332 
    1300    241.86626   -140.13467    204420.41   -23234.436    1755.5312   -24989.967     5.277377   0.94632332 
    1400    238.21206   -274.38051    204420.41   -23284.017     1729.008   -25013.025    5.6112276   0.94632332 
    1500    240.17153    -146.6145    204420.41   -23302.774    1743.2304   -25046.004     5.983752   0.94632332 
    1600    240.04637   -326.69614    204420.41   -23277.935    1742.3219   -25020.257    6.3490002   0.94632332 
    1700    239.22382   -354.06228    204420.41   -23285.623    1736.3517   -25021.975     6.685433   0.94632332 
    1800    241.26988   -408.62533    204420.41   -23266.263    1751.2025   -25017.466    6.9474752   0.94632332 
    1900    243.51003   -259.26682    204420.41   -23222.753    1767.4622   -24990.216    7.2170418   0.94632332 
    2000    242.74183   -407.40503    204420.41   -23201.829    1761.8864   -24963.715    7.6032949   0.94632332 
    2100    238.25481    -368.9924    204420.41   -23304.695    1729.3183   -25034.013    8.1654035   0.94632332 
    2200    239.14003   -457.19129    204420.41   -23279.749    1735.7435   -25015.492    8.5621165   0.94632332 
    2300    245.69123   -391.59576    204420.41   -23254.047    1783.2939   -25037.341    8.9453661   0.94632332 
    2400     243.3793   -286.68412    204420.41   -23262.424    1766.5133   -25028.937    9.3716032   0.94632332 
    2500    240.53797   -350.46569    204420.41   -23292.319    1745.8902   -25038.209    9.7239025   0.94632332 
    2600    239.90307   -425.22424    204420.41   -23299.455    1741.2819   -25040.737    9.8738318   0.94632332 
    2700    241.53529   -436.24382    204420.41   -23286.927     1753.129   -25040.056    10.283329   0.94632332 
    2800    245.07483   -288.27113    204420.41     -23245.7    1778.8199    -25024.52    10.857505   0.94632332 
    2900    243.58681   -170.21774    204420.41   -23242.182    1768.0194   -25010.201    11.387894   0.94632332 
    3000    245.52927   -475.00821    204420.41   -23235.071    1782.1183   -25017.189    11.796283   0.94632332 
    3100    244.41958   -169.83764    204420.41   -23223.662    1774.0639   -24997.726    12.201965   0.94632332 
    3200    241.98231   -368.78311    204420.41   -23296.928    1756.3736   -25053.302    12.589876   0.94632332 
    3300    234.42908   -347.12871    204420.41   -23372.761    1701.5501   -25074.311    13.039889   0.94632332 
    3400    243.66378   -379.08018    204420.41   -23319.535    1768.5781   -25088.113    13.355516   0.94632332 
    3500    241.76796   -338.34547    204420.41   -23316.085    1754.8177   -25070.902    13.442798   0.94632332 
    3600    235.90359   -434.80812    204420.41   -23304.969    1712.2525   -25017.221    13.876124   0.94632332 
    3700    246.59013   -496.61831    204420.41   -23278.899    1789.8184   -25068.717    14.050972   0.94632332 
    3800    235.06803   -388.67825    204420.41   -23271.403    1706.1878   -24977.591    14.444588   0.94632332 
    3900    241.34026   -327.99586    204420.41    -23270.39    1751.7133   -25022.103     14.91052   0.94632332 
    4000    234.23693   -242.76227    204420.41    -23299.51    1700.1555   -24999.665    15.616759   0.94632332 
    4100    242.82758    -221.9721    204420.41    -23290.52    1762.5087   -25053.029    15.924013   0.94632332 
    4200    251.23278   -330.63133    204420.41   -23285.072     1823.516   -25108.588    16.294674   0.94632332 
    4300    235.73008   -363.94283    204420.41   -23365.344    1710.9931   -25076.337    16.739875   0.94632332 
    4400    238.13655   -241.66364    204420.41   -23327.326      1728.46   -25055.786    17.205666   0.94632332 
    4500    242.79883   -504.28073    204420.41   -23358.399    1762.3001   -25120.699    17.522484   0.94632332 
    4600    237.22207   -395.41101    204420.41   -23393.358    1721.8224    -25115.18    17.995986   0.94632332 
    4700    247.75005   -428.52683    204420.41   -23335.453    1798.2374   -25133.691    18.304506   0.94632332 
    4800    244.11655   -437.21559    204420.41   -23299.566    1771.8644    -25071.43    18.795821   0.94632332 
    4900    245.21277   -377.77423    204420.41   -23251.812    1779.8211   -25031.633    19.192228   0.94632332 
    5000    237.02312   -381.70734    204420.41   -23305.787    1720.3784   -25026.166    19.621695   0.94632332 
    5100    242.46022   -329.34333    204420.41   -23266.905    1759.8424   -25026.748    20.050798   0.94632332 
    5200    237.50489    -210.9052    204420.41   -23291.555    1723.8752    -25015.43    20.258088   0.94632332 
    5300    237.49913   -198.19172    204420.41   -23346.841    1723.8334   -25070.675    20.578965   0.94632332 
    5400    239.65167    -244.0012    204420.41   -23337.811    1739.4571   -25077.269    20.806484   0.94632332 
    5500    236.38847   -299.14328    204420.41     -23326.1    1715.7719   -25041.872    21.358346   0.94632332 
    5600    241.99803   -264.50775    204420.41   -23346.432    1756.4876    -25102.92    21.740369   0.94632332 
    5700    232.54593   -131.32226    204420.41     -23318.7    1687.8817   -25006.582    21.862867   0.94632332 
    5800    237.77705   -247.15288    204420.41   -23300.782    1725.8506   -25026.633     22.08167   0.94632332 
    5900    236.24786   -319.75625    204420.41   -23324.463    1714.7514   -25039.214    22.434518   0.94632332 
    6000    242.84706   -224.69198    204420.41   -23336.136    1762.6502   -25098.786    22.869362   0.94632332 
    6100    242.77274   -383.60937    204420.41   -23364.013    1762.1107   -25126.124     23.32704   0.94632332 
    6200    238.87339   -380.90854    204420.41   -23377.407    1733.8082   -25111.215    23.486025   0.94632332 
    6300    240.59081   -431.09055    204420.41   -23300.835    1746.2737   -25047.109    23.613442   0.94632332 
    6400    240.84399   -331.44594    204420.41   -23367.926    1748.1113   -25116.037    23.885335   0.94632332 
    6500    234.61299   -320.05844    204420.41   -23386.944     1702.885   -25089.829    23.874637   0.94632332 
    6600     235.4444   -189.10993    204420.41   -23391.827    1708.9196   -25100.746    24.217338   0.94632332 
    6700    238.24439    -344.1865    204420.41   -23414.986    1729.2427   -25144.229      24.5234   0.94632332 
    6800    238.19719   -209.87629    204420.41   -23407.763    1728.9001   -25136.663    24.659991   0.94632332 
    6900    245.55215   -312.74702    204420.41   -23353.638    1782.2844   -25135.923    25.098845   0.94632332 
    7000    240.48138   -247.77499    204420.41   -23364.091    1745.4794    -25109.57    25.617946   0.94632332 
    7100    239.75823   -183.18684    204420.41   -23376.035    1740.2305   -25116.266    26.082497   0.94632332 
    7200    234.25986   -360.44166    204420.41   -23440.954    1700.3219   -25141.276    26.389325   0.94632332 
    7300    231.02375   -521.91564    204420.41   -23462.701    1676.8333   -25139.535    26.724769   0.94632332 
    7400    236.23946   -369.71861    204420.41   -23434.664    1714.6904   -25149.354    27.117757   0.94632332 
    7500    233.66823   -377.01445    204420.41   -23395.154    1696.0277   -25091.181     27.39149   0.94632332 
    7600    242.31272   -528.09649    204420.41    -23343.85    1758.7718   -25102.621    27.747622   0.94632332 
    7700    239.71641   -418.17196    204420.41   -23346.336    1739.9271   -25086.263     28.05809   0.94632332 
    7800    232.60826   -338.91019    204420.41   -23405.894    1688.3341   -25094.228    28.304979   0.94632332 
    7900    244.49592   -205.13151    204420.41   -23370.873     1774.618   -25145.491    28.395934   0.94632332 
    8000    241.30406   -216.09373    204420.41   -23309.088    1751.4506   -25060.539    28.438771   0.94632332 
    8100    240.03378   -151.30864    204420.41    -23299.62    1742.2305   -25041.851    28.601342   0.94632332 
    8200    243.77586   -186.79139    204420.41    -23337.79    1769.3916   -25107.181    28.839922   0.94632332 
    8300    248.08135   -314.51016    204420.41   -23303.459     1800.642   -25104.101    28.961645   0.94632332 
    8400    248.34009   -267.30671    204420.41   -23304.187    1802.5201   -25106.707    29.085895   0.94632332 
    8500    243.62741   -309.02241    204420.41    -23339.66    1768.3142   -25107.974     29.07119   0.94632332 
    8600    236.20342   -291.59393    204420.41   -23351.793    1714.4288   -25066.222    29.559053   0.94632332 
    8700    233.94429   -501.72069    204420.41   -23368.285    1698.0314   -25066.317    29.900615   0.94632332 
    8800    238.53362   -441.71698    204420.41   -23366.079     1731.342   -25097.422    30.338361   0.94632332 
    8900     234.1486   -384.84528    204420.41   -23391.313    1699.5143   -25090.828    30.815551   0.94632332 
    9000     239.5765   -255.36228    204420.41   -23352.857    1738.9115   -25091.769    31.191977   0.94632332 
    9100    242.78797   -229.94467    204420.41   -23375.145    1762.2212   -25137.366    31.456616   0.94632332 
    9200    237.05978   -226.95306    204420.41   -23326.874    1720.6445   -25047.519    31.837345   0.94632332 
    9300    235.62281   -239.61788    204420.41   -23374.437    1710.2146   -25084.652    32.153042   0.94632332 
    9400    240.57275   -271.86678    204420.41   -23342.789    1746.1426   -25088.931    32.451911   0.94632332 
    9500    236.85174   -582.59401    204420.41   -23383.068    1719.1345   -25102.203    32.729222   0.94632332 
    9600    237.47182   -433.76942    204420.41   -23371.358    1723.6352   -25094.993    33.063658   0.94632332 
    9700    236.10553   -200.72226    204420.41     -23324.5    1713.7183   -25038.218    33.031833   0.94632332 
    9800    241.30113    -331.5362    204420.41   -23273.716    1751.4293   -25025.145    33.474285   0.94632332 
    9900    240.41994   -173.82592    204420.41    -23295.61    1745.0334   -25040.644     33.79194   0.94632332 
   10000    237.97441   -201.70524    204420.41   -23293.807    1727.2831    -25021.09    34.009917   0.94632332 
Loop time of 10.6286 on 64 procs for 10000 steps with 8482 atoms

Performance: 406.450 ns/day, 0.059 hours/ns, 940.858 timesteps/s
100.0% CPU use with 64 MPI tasks x no OpenMP threads

MPI task timing breakdown:
Section |  min time  |  avg time  |  max time  |%varavg| %total
---------------------------------------------------------------
Pair    | 0.00081524 | 3.9273     | 8.547      | 168.4 | 36.95
Neigh   | 0.0048452  | 0.23729    | 0.55661    |  36.9 |  2.23
Comm    | 0.19863    | 2.0398     | 7.4586     | 135.6 | 19.19
Output  | 0.16435    | 0.16442    | 0.16517    |   0.0 |  1.55
Modify  | 0.43045    | 4.1454     | 10.15      | 199.6 | 39.00
Other   |            | 0.1145     |            |       |  1.08

Nlocal:    132.531 ave 264 max 0 min
Histogram: 16 0 4 2 10 0 2 14 5 11
Nghost:    808.266 ave 1157 max 520 min
Histogram: 14 10 7 1 3 2 3 5 15 4
Neighs:    0 ave 0 max 0 min
Histogram: 64 0 0 0 0 0 0 0 0 0
FullNghs:  13322.3 ave 29385 max 0 min
Histogram: 16 16 0 0 0 0 2 12 8 10

Total # of neighbors = 852628
Ave neighs/atom = 100.522
Neighbor list builds = 580
Dangerous builds = 0
write_data 	    ${DIR}/data.${NAME}_eq
write_data 	    run_8/data.${NAME}_eq
write_data 	    run_8/data.ibeam_cooling_8_eq

undump              1
unfix               4



################################################
#######         Run Simulation         #########
################################################

reset_timestep      0
timestep	    10.0
log                 ${DIR}/log.run_${NAME}
log                 run_8/log.run_${NAME}
log                 run_8/log.run_ibeam_cooling_8
