LAMMPS data file via write_data, version 12 Dec 2018, timestep = 2000000

3956 atoms
1 atom types

4.8761131272296865e-02 4.9951238868719287e+01 xlo xhi
4.8761131272296865e-02 4.9951238868719287e+01 ylo yhi
4.8761131272296865e-02 4.9951238868719287e+01 zlo zhi

Masses

1 18.15

Atoms # atomic

2447 1 2.7388149289360517e+00 3.3668360024029278e+00 8.7058786930030641e-01 0 -1 2
2528 1 2.3020370942903128e+00 6.5432952561041502e-01 1.7937869242962188e+00 1 1 0
3173 1 4.3612875176125510e+00 2.4810967466718179e+01 3.2629611622807819e+00 1 -1 1
1281 1 7.8409776017171353e+00 1.1973828919937559e+00 1.9554185937074360e+00 -1 2 1
685 1 1.3573956618546365e+01 2.8661641612909277e+00 8.7183096829724238e-01 0 -2 0
2639 1 1.2685999410217661e+00 7.2216122308459285e+00 2.8810510882926377e-01 -1 0 2
2299 1 1.5318006300068005e+01 2.0590621154198003e+00 2.8253389699159341e+00 1 0 1
131 1 1.8080633676155788e+01 2.1969199093567062e+00 2.3688563622075662e+00 1 -2 0
3817 1 2.4037390289357919e+01 1.5066701895199486e+00 1.4940434014556523e+00 0 -1 2
1622 1 2.3896351839708863e+01 2.4551698844547190e+01 1.1171581358338882e+01 -1 1 -1
559 1 7.1219921271862885e-01 4.8961596147568960e+00 1.8160853776144883e+00 0 1 1
3673 1 5.0442883337694679e+00 4.1541281441506284e+00 8.5872164480163016e-01 2 2 1
2415 1 1.1229441218514674e+01 4.2329217816816262e+00 1.2201984357208340e+00 1 0 0
1071 1 1.2278352243351479e+01 6.6232124705010573e+00 2.4282850127057354e+00 0 -1 0
1941 1 1.6813467764954328e+01 5.9117112037005901e+00 1.8212580438702994e+00 0 -1 0
2548 1 1.8671439501245349e+01 4.0824821240085818e+00 7.5244429038048011e-01 0 0 -1
399 1 2.0968524918850470e+01 5.0642734906213489e+00 1.3917557729151524e+00 0 1 0
3907 1 3.5509583512019338e+00 8.8228589943615905e+00 3.1222378100459283e+00 0 0 0
3483 1 3.6911126424958662e+00 8.5501150606552105e+00 5.5784797016825249e-01 2 0 0
2391 1 2.4643266046696009e+01 7.2006813801491310e-01 1.6319418697549864e+01 1 0 0
2733 1 8.1064061286297076e+00 7.5598932983093361e+00 3.0788440357302234e+00 -1 0 2
3289 1 1.3600997627693289e+01 8.1657240177372614e+00 4.3295380625908225e-01 0 1 1
3544 1 1.4996231571772867e+01 1.0273259546777295e+01 1.7327706687771294e+00 2 0 -1
90 1 1.9709880850167664e+01 9.2383897316691375e+00 6.5953692246130802e-01 0 0 -1
3096 1 1.8141263303943301e+01 8.1621036975549135e+00 2.7253058568378874e+00 2 2 -2
777 1 2.4151163358368564e+01 8.2151580525797971e+00 2.3370083559003649e-01 1 1 0
766 1 2.4287488737202313e+01 9.5723969308491910e+00 2.6988732896613419e+00 -1 -1 0
2921 1 2.7806547309386529e+00 1.4248865006437114e+01 8.6638205957959924e-01 0 -1 2
2552 1 2.4221513652924951e+01 2.3394472041305900e+01 1.4924058189277696e+01 0 1 -1
1651 1 4.4369782781154496e+00 1.3607622371315262e+01 2.9471461275906248e+00 0 1 0
2038 1 6.6132524561555002e+00 1.1879990707316415e+01 2.3750002630694391e+00 0 -1 -1
528 1 8.8754200495855908e+00 1.2872759559694781e+01 2.7434334611721383e+00 0 0 0
990 1 1.0633240544476093e+01 1.0903860252182094e+01 1.9148568356971687e+00 -1 1 0
2361 1 1.2991312501901119e+01 1.2083787815305726e+01 2.4620926563951029e+00 0 1 1
1156 1 1.9121056324401419e+01 4.4228855692091329e-01 1.0058388862378278e+01 -1 -1 1
2291 1 1.8800066011065578e+01 1.2986813150517602e+01 2.6050763624125803e+00 0 -1 1
2600 1 2.0907036880694559e+01 1.1334218944466997e+01 1.6134592130905909e+00 1 0 1
2335 1 3.6343823733667868e+00 1.2580520139065808e+01 1.6207626666893706e+01 1 1 -1
2635 1 8.0205076571629041e-01 1.5765606943624526e+01 1.7477083980680892e+00 1 -1 0
89 1 7.3197530894185530e+00 1.6691207144290789e+01 2.2526617598414389e+00 -1 -1 0
1300 1 9.3020026797594397e+00 1.4968603551083255e+01 1.3845577366953592e+00 1 0 0
1568 1 1.3222137177891451e+01 1.4332950392158891e+01 8.7098462078718575e-01 1 1 0
2541 1 1.1612674400592914e+01 1.6517032896801048e+01 1.6327443375376973e+00 -1 0 0
3412 1 1.5772174492138255e+01 1.5569131979333894e+01 1.0760948000048254e+00 -1 1 0
569 1 2.1949092098734511e+01 1.6363493650315995e+01 1.6956491450455644e+00 0 1 1
1714 1 2.3782770810550875e+01 1.4796844957178445e+01 9.0775639784861739e-01 0 0 0
1931 1 4.1881710957018363e+00 1.9562152232332448e+01 3.3577487311122916e+00 2 0 2
2578 1 2.4791845628961099e+01 1.8917089712130107e+01 1.2738591054685150e+01 0 0 0
3212 1 3.8252501033318977e+00 1.8913388942685998e+01 5.9763473122302724e-01 0 -1 -1
951 1 8.7786317561553844e+00 1.8928263621989661e+01 2.9021105272751333e+00 3 -1 1
3261 1 9.7846580648838799e+00 2.0044564242317296e+01 8.7263849279309447e-01 2 0 1
1866 1 1.4105374779350379e+01 1.9544307906726527e+01 6.3288540270720783e-01 0 0 1
205 1 2.4220171568272729e+01 5.6362294738216550e+00 1.1431476162704614e+01 -2 -1 2
3346 1 1.4893398287025249e+01 2.0156039809300015e+01 3.0212491352720079e+00 0 2 3
1330 1 1.8962775746510669e+01 1.9296686902753589e+01 3.0078087356861847e+00 -2 0 2
2468 1 2.1232212974204312e+01 2.0232391687943501e+01 3.2947844139845666e+00 0 0 3
1953 1 1.7145040716592813e+01 2.2864913081667904e+01 1.5130256008364574e+01 1 1 1
3781 1 2.3248544535872931e+01 1.8885585941612508e+01 2.2831542392508881e+00 0 -1 2
187 1 2.1500842634395698e+00 2.3508530532773928e+01 2.1829802487007601e+00 1 1 -1
11 1 6.2942273884957194e+00 2.2910447343948761e+01 2.8027168124517741e+00 1 -2 1
341 1 8.0326130686362500e+00 7.3395504204438451e+00 2.2801947200451717e-01 0 1 0
1118 1 8.7227365561427455e+00 2.3946644741183388e+01 2.8692688934228392e+00 -1 1 -1
232 1 1.0694367420893172e+01 2.2366438173788254e+01 1.7310898412958180e+00 0 0 1
2612 1 3.6350363360597271e-01 1.1140155395855949e+01 1.9375479518950878e+00 0 2 0
208 1 1.4581247073977828e+01 2.3811095955041292e+01 2.9905744044259466e+00 0 0 -1
3850 1 1.7255829206464735e+01 2.3365761901479253e+01 2.0635478975258277e+00 0 0 1
64 1 1.8543085782014618e-01 1.4917503351679317e+01 1.5124518585802257e+01 0 1 0
1214 1 2.1186490215478972e+01 2.2531516354295796e+01 1.8607045838333214e+00 1 0 1
3799 1 2.3667654763565707e+01 2.3409571599670791e+01 2.9007389152991232e+00 1 1 1
1867 1 1.1709132100310962e+00 2.9825962344243391e+00 5.7637515951788219e+00 0 2 2
1821 1 2.3615416280581729e+00 9.3554954511707511e-01 4.5806175252591119e+00 1 0 -1
54 1 4.6727426591891366e+00 1.8094067339317934e+00 4.9988392450848389e+00 0 -1 0
3158 1 2.4389677888023829e+01 1.5067274053014703e+01 9.3609730362401304e+00 1 -1 0
1743 1 9.2786104365387985e+00 3.5483134594088259e+00 3.2856500651354890e+00 -2 2 1
371 1 9.9755130348378298e+00 1.3766813828617699e+00 4.9146945874988219e+00 1 0 2
2813 1 1.4377009189173721e+01 3.3652863541281441e-01 4.5050006773332232e+00 2 -1 2
3184 1 1.9126274306571993e+01 2.2529639253894573e+00 4.8263825611640980e+00 2 0 1
1426 1 2.3611690470929531e+01 2.0194157749870794e+00 4.2310905621491184e+00 -1 1 0
1110 1 1.1029774233648317e+00 5.3488175014309425e+00 4.4207536311892897e+00 0 1 0
1022 1 3.6172208188818504e+00 6.3322617416103038e+00 4.6642381011085821e+00 0 1 -1
2586 1 5.3257905703996293e+00 4.1581322754419725e+00 3.7631285064086741e+00 1 0 -1
834 1 7.7382180910534633e+00 5.3939106254508280e+00 4.3975694394451601e+00 1 0 1
2588 1 1.3703839544394731e+01 6.3412280337734570e+00 4.8880025090479942e+00 -1 0 0
1390 1 1.2096856971371826e+01 5.3026499594161418e+00 6.8671873780718373e+00 0 0 0
2580 1 1.5745137110542947e+01 4.7205027182073920e+00 3.9730013561014283e+00 1 2 1
2122 1 1.7415166407251608e+01 4.0083072540732330e+00 5.8656421406351100e+00 1 -2 0
2167 1 2.1455607513637805e+01 3.4396026700302849e+00 5.1479316207340435e+00 1 1 -1
1620 1 2.1671727942548394e+01 5.8577084565563098e+00 4.0170365881640402e+00 1 0 2
855 1 1.5878950717357809e+00 1.0448089696905910e+01 4.0880224150604505e+00 0 0 1
1739 1 6.2493671134660893e+00 9.5546980549414577e+00 3.4908135509574110e+00 0 -1 1
489 1 6.3939403596948781e+00 1.0105257805703015e+01 6.1201755375551246e+00 0 0 0
3715 1 1.0707567364991208e+01 8.6938338897665339e+00 3.5651375704540982e+00 1 0 0
1531 1 1.0377635173184274e+01 9.5196205140580261e+00 6.2185986259778945e+00 0 3 0
2036 1 1.2844888102213353e+01 1.0499915665661634e+01 6.6301604990587215e+00 0 1 1
2255 1 1.6210551752176041e+01 9.6276279185373514e+00 3.8620833069975049e+00 1 0 0
3316 1 1.4387595392261813e+01 8.6451850472334417e+00 5.8055919601689094e+00 1 2 1
3267 1 1.9750505423550788e+01 7.3805010345113713e+00 5.0699084847250226e+00 -1 -1 1
833 1 2.0597600953956125e+01 9.5036837247051427e+00 6.0098574378351604e+00 0 -1 1
3294 1 2.3986554038025773e+01 7.2592483712490825e+00 4.5947526518092943e+00 -1 2 1
1182 1 2.8101342458051910e+00 1.2808666812978844e+01 4.7165125055306172e+00 1 1 -1
159 1 8.8734215289432168e+00 1.3829903418436757e+01 5.5267869006816897e+00 -1 0 1
61 1 1.3019648348824582e+01 1.2765930439501135e+01 4.9506974032448152e+00 1 0 -2
1643 1 1.5524981794495222e+01 1.3786386514220439e+01 5.2188078915589280e+00 -1 0 -1
2498 1 1.7468504097824482e+01 1.1914791448081383e+01 4.4644573417602667e+00 1 0 0
2607 1 1.8880956034480601e+01 1.1585586715564238e+01 6.6595207463443167e+00 -2 1 1
1841 1 2.2179342383131136e+01 1.0779183057949275e+01 3.8856544152443075e+00 2 1 2
2495 1 2.3623153336157159e+01 1.2998119606035006e+01 4.8324241045157672e+00 0 -1 0
2906 1 5.8471528735375256e-01 1.4395811134490671e+01 5.7890199708853931e+00 1 -1 0
3754 1 9.3749523491932862e-01 1.6836644259796277e+01 4.3077736859101750e+00 0 1 -1
1873 1 3.6957750244732694e+00 1.7504169872073145e+01 4.8117244848919700e+00 0 0 0
2887 1 5.4974386666780282e+00 1.5826452897878228e+01 3.9633825074521538e+00 0 2 1
1894 1 7.0002970851996364e+00 1.5582020237837593e+01 6.2798835944407916e+00 -1 1 1
2975 1 1.1481086985883371e+01 1.4859741345929105e+01 5.7413734695279697e+00 -1 0 -1
1609 1 1.2056914521539728e+01 1.7065941385500089e+01 4.3012741102431873e+00 1 2 1
1838 1 1.4650832830560061e+01 1.7981904589786158e+01 4.4431936814517412e+00 -1 1 0
386 1 1.6117699237628361e+01 1.6015945942948214e+01 3.8151123497935031e+00 0 -1 2
1166 1 2.0184926818267435e+01 1.5151260517641594e+01 3.5467360566117967e+00 0 0 1
3709 1 1.8441192990736443e+01 1.7158439546719649e+01 4.4440244133690259e+00 1 -1 2
229 1 2.1652061400256407e+01 1.4836051306915198e+01 5.7576375805926920e+00 1 1 0
487 1 1.9443367962721820e+00 2.1327567945451943e+01 3.7632687905977469e+00 0 -1 0
57 1 1.7142876487698775e+00 2.0989545268384358e+01 6.8818607358657147e+00 0 0 0
741 1 6.6863117468579887e+00 2.0391474660254733e+01 3.8927262742476274e+00 -1 1 1
2464 1 6.3277173024940057e+00 2.0005273800864003e+01 6.4788918329627840e+00 2 -1 0
1656 1 1.0667785285609650e+01 1.9452973048864646e+01 4.6547333225193368e+00 -1 0 1
1291 1 1.2490774957040076e+01 2.1706128366709219e+01 3.6540049421197573e+00 1 3 0
2726 1 1.7138055233989139e+01 2.0962215483858166e+01 3.8786722544667112e+00 0 0 2
3296 1 2.2017390743110532e+01 1.9887960852599260e+01 6.0316453705850863e+00 -2 0 0
1640 1 2.3356465997126158e+01 2.2079318455058246e+01 6.8360181275890088e+00 -1 0 1
1465 1 9.4912175657263322e+00 2.4107465003192363e+01 5.8949765404927836e+00 0 0 0
2992 1 1.2280248017127557e+01 2.3716699544946117e+01 5.8146058911622296e+00 -2 1 0
454 1 1.7059246924544599e+01 2.1613038915446094e+01 6.6467090504718342e+00 -1 -1 0
1491 1 1.2083297315751308e+01 1.0283129661821379e+01 1.6433500325507875e+01 0 2 1
3192 1 1.8389069014288459e-01 1.8990251019339848e+01 1.4161450805081156e+01 2 0 1
3795 1 6.5458711677923798e-01 2.9328548947423028e+00 8.3682121140824908e+00 1 0 1
1560 1 3.0133154619573967e+00 2.6712050307834638e+00 9.6171028045129763e+00 0 1 0
3133 1 5.9331399307153676e+00 1.8005305036434789e+00 7.3582007934830784e+00 0 2 -1
999 1 4.2038360482053783e+00 3.9647996853358342e-01 9.0804322281001024e+00 -1 2 0
3646 1 1.0370819991087634e+01 1.4262814786547653e+00 9.3051482666904342e+00 0 0 1
3770 1 1.1385173100795159e+01 2.6637947196704319e+00 6.8831834554820039e+00 1 1 0
2139 1 1.3936689932568752e+01 1.1887578904612133e+00 6.8505623711221819e+00 0 1 1
1504 1 1.5485904294606200e+01 2.9783045213956667e+00 7.9562760802924064e+00 1 0 -1
2144 1 1.9953220959726970e+01 2.4957649165848970e+01 5.3848133822457660e+00 -1 -1 0
343 1 2.1562399883959007e+01 1.8076772999791857e+00 9.2808084953000076e+00 0 1 2
2014 1 6.7115633965568655e+00 3.9799255742961219e+00 8.6295286975962178e+00 1 0 -1
3048 1 4.2600053338072774e+00 4.9179576232220441e+00 9.1335141612225943e+00 1 1 -1
703 1 7.9854009202449889e+00 5.8082712847981179e+00 7.1550238059288338e+00 1 0 1
3542 1 1.0208948326794593e+01 7.0581542023391917e+00 7.3957498417251379e+00 1 1 1
3152 1 1.3628663101872787e+01 4.5958626586320630e+00 8.9241647375051123e+00 1 1 0
1451 1 1.8233465324273354e+01 6.5638855533520815e+00 6.9367120441712107e+00 1 1 0
242 1 1.9835177738600873e+01 6.1642066841646708e+00 9.1139872052243920e+00 -1 -1 1
1886 1 2.1171832735025678e+01 4.0887445000646512e+00 7.7869983882307929e+00 -1 2 0
2828 1 2.3603850783014671e+01 5.1958783463665785e+00 8.5121903243599544e+00 -2 -1 0
1890 1 3.8290107386472374e+00 7.1160171607674965e+00 7.3743690821649528e+00 0 1 0
1910 1 1.8622691260950770e+00 8.9493050411711152e+00 8.0024107141818348e+00 0 0 1
1482 1 6.3552028898058381e+00 8.0547770620909649e+00 7.6488585329545549e+00 0 0 1
2444 1 1.6367083989247345e+01 8.5109960835096317e+00 7.8750340563312582e+00 0 -1 -1
1189 1 1.5062465992200144e+01 7.0400444083359721e+00 9.5578039748309696e+00 -2 1 0
3022 1 2.3898213889060806e+01 7.4603521136374500e+00 7.2064099346971648e+00 -1 1 0
896 1 2.2257866798593170e+01 9.2082270885081865e+00 8.2481474291708370e+00 -1 1 2
2983 1 2.3787780060197963e+00 1.1566162900014803e+01 8.4161035551728389e+00 2 1 0
1799 1 7.2521593298932341e-01 1.3273407362439043e+01 8.4655246018079122e+00 0 0 0
1404 1 4.3321777839039344e+00 1.2109542347618124e+01 6.7426122773237012e+00 0 2 -1
2169 1 5.7692543792313549e+00 1.4154141837163973e+01 7.8055980757428118e+00 0 0 0
2341 1 8.6274950410740061e+00 1.1389641706906191e+01 6.6177308551380030e+00 1 0 0
879 1 9.1548517257288236e+00 1.1742928051711433e+01 9.2994603052863631e+00 1 0 1
2710 1 1.3437353296493809e+01 1.1014292097398364e+01 9.2562725771958991e+00 0 0 1
2311 1 1.7625522691386600e+01 1.0838853096632153e+01 8.9897096381643529e+00 -1 1 0
3677 1 1.5744573605911290e+01 1.2596427973831753e+01 9.8792909427882094e+00 0 0 1
328 1 2.0648483082053307e+01 1.3348797835066328e+01 7.6635428379177650e+00 -2 0 2
1039 1 2.3895998291822995e+01 1.1269637116093065e+01 9.0959177105888518e+00 -1 1 2
3937 1 2.1765910162355773e+01 1.2894152985518181e+01 1.0091164570346649e+01 1 0 1
3888 1 7.6200341015515438e-01 1.7005562404274691e+01 1.0242520049260696e+01 1 1 0
1376 1 3.1624150052812818e+00 1.8383373259673672e+01 9.4843032905201188e+00 0 0 -2
3026 1 4.7870694161193894e+00 1.6244836009097188e+01 9.7683919818147515e+00 1 -1 1
2229 1 7.2715366573051829e+00 1.7151578122322988e+01 9.5899228640928769e+00 0 -2 0
3284 1 8.0372280387437200e+00 1.7827425510606812e+01 7.1498238546046045e+00 1 0 0
1468 1 1.2375931723200841e+01 1.4746024387121247e+01 8.1844354544809015e+00 -1 1 0
3813 1 1.2326298190732707e+01 1.7373353214906842e+01 8.4740560946491552e+00 0 -1 0
143 1 1.5097899976254231e+01 1.4667465505212446e+01 7.7731508357273480e+00 0 -1 0
1823 1 1.7075504447932392e+01 1.6812199923344131e+01 8.6101432211358997e+00 0 0 1
2375 1 1.9799218877636878e+01 1.5980089981663271e+01 9.2539995346929125e+00 0 0 0
1971 1 1.7751034547525414e+01 1.8686470356572311e+01 6.4483809787986530e+00 0 0 0
2911 1 2.3029123572579618e+01 1.7099051304984350e+01 6.3895272679075017e+00 3 0 2
2849 1 3.6949996727370649e+00 1.9315994456844290e+01 6.9299454411210561e+00 2 -2 0
3280 1 1.0450499334496968e+01 1.8701077264304068e+01 7.2934369296353569e+00 1 0 1
294 1 1.4544824117701879e+01 1.8074082014996531e+01 7.5066599809280703e+00 -1 1 1
1972 1 1.5061998520345769e+01 2.0783717637193828e+01 8.3102693510942203e+00 0 0 0
116 1 2.0236604776198188e+01 1.9083237550245130e+01 7.7993646187461190e+00 1 0 -1
2755 1 1.9436408019387944e+01 2.1812790342835470e+01 7.9279199430835394e+00 0 0 1
3571 1 2.0118238241195456e+00 2.2991122651362232e+01 8.7083447105609153e+00 1 0 1
644 1 6.4316326118690395e+00 2.1943192812800923e+01 8.3747754283795626e+00 1 0 0
2597 1 4.5099757826977145e+00 2.4007595396387675e+01 7.8937853854469671e+00 1 -1 1
2427 1 8.7995418940786063e+00 2.3191739315914447e+01 8.3460631443319127e+00 -1 -1 0
873 1 1.0596044328579659e+01 2.1019444654402729e+01 8.6598687401918895e+00 1 -1 2
3782 1 1.2646638496832665e+01 2.2140238759512584e+01 7.8933696215047942e+00 0 1 0
2754 1 2.1705545691760946e+01 2.3780369066158521e+01 7.4633025633099441e+00 0 -2 1
1623 1 2.4970425077042600e+00 2.7322719448365924e+00 1.2420966007481674e+01 0 1 0
713 1 6.7585497474338743e+00 1.5625795696395313e+00 1.1767527517751965e+01 1 -1 1
3647 1 1.2919557792847323e+01 2.1800920511343570e+01 1.4130882255382728e+01 1 -1 0
695 1 1.7320313575067239e+01 1.3688072350270660e+01 5.6857033054111339e-01 1 1 1
3897 1 1.2708226887380029e+01 3.2383287803957734e+00 1.0933156247080536e+01 1 -1 2
2833 1 1.7168321076657548e+01 2.3053935866627486e+00 1.0123030895172159e+01 1 1 0
631 1 1.5349888361476097e+01 1.7480516247362685e+00 1.1943044564569011e+01 1 0 0
611 1 2.4441316197827234e+01 3.0572745109275843e+00 1.2226127438447394e+01 -1 -1 1
2226 1 2.1915568356353816e+01 2.3165617770039937e+00 1.1804506442585579e+01 1 1 1
2072 1 4.4983086428272108e+00 6.8543922083606645e+00 1.0959143419973158e+01 0 0 0
3376 1 8.4107099433092110e+00 3.0171830410294422e+00 1.0487864997176718e+01 2 0 1
2818 1 9.5027574930567784e+00 5.3540067294494778e+00 1.1711084955562038e+01 -1 1 0
3612 1 1.1321036732868349e+01 4.3513994754389129e+00 1.3183839686256579e+01 2 1 1
3880 1 1.6516967679414950e+01 6.3444304461277641e+00 1.1731615550401694e+01 2 2 0
1638 1 1.5059969035751971e+01 4.8086190653353498e+00 1.2932421173911800e+01 0 2 0
2971 1 2.0292688968429978e+01 4.0743281365507267e+00 1.2688233388644203e+01 0 0 1
2234 1 1.8305155566746535e+01 4.8123411772714624e+00 1.0752307077973377e+01 -1 2 2
1000 1 6.8257372615972214e+00 8.7609439716804900e+00 1.6643219516747038e+01 -1 1 -1
2999 1 1.7139880690265763e+00 7.2471006893455110e+00 1.1730904795668472e+01 2 -1 -1
3217 1 2.2658448021603976e+00 9.7183026796547551e+00 1.2797322076211215e+01 0 1 -1
1028 1 6.0647919202776475e+00 8.9571530006854889e+00 1.0040720232008050e+01 1 -1 0
1478 1 4.1044592985192052e+00 1.0936907578213837e+01 1.0728532944650482e+01 0 0 1
706 1 1.0430264957159636e+01 7.3855582067135650e+00 9.9425232171026749e+00 1 1 0
3057 1 8.6298497206208467e+00 9.5273411768190002e+00 1.0533602907044791e+01 1 1 1
2109 1 1.2884179023976456e+01 8.6078006287784934e+00 1.0008425308613841e+01 1 0 0
2323 1 1.3131363322204503e+01 8.7783491389928727e+00 1.2658763668445550e+01 0 0 0
2066 1 1.7451826132603408e+01 8.3826058052330286e+00 1.3036170630164317e+01 0 -1 0
810 1 2.0838852424095041e+01 8.4473936054581831e+00 1.0353013949653887e+01 -2 0 0
1674 1 1.8660803283544723e+01 9.9139723287674340e+00 1.1143055370753407e+01 2 1 0
82 1 2.2272336093489276e+01 7.7127717456732938e+00 1.2454440504224058e+01 -1 0 1
1720 1 1.4842981232485673e+01 9.7383795672386597e+00 1.6507763537509010e+01 0 1 0
3489 1 5.5403745651082534e+00 1.2858410577172586e+01 1.1871628532175190e+01 1 1 0
3906 1 7.5444342516977443e+00 1.3694938489275570e+01 1.0038777706851253e+01 -2 0 2
579 1 1.1469078642210134e+01 1.3007998580830197e+01 1.0294754002046666e+01 -2 1 0
145 1 1.2221308911534717e+01 1.2988281303388284e+01 1.2886382135064268e+01 0 1 -1
2455 1 1.4803733163964790e+01 1.2421592935564753e+01 1.2603348090753098e+01 -1 -1 1
514 1 1.9767739297229198e+01 1.2443121206204015e+01 1.1843479559877659e+01 1 1 1
2457 1 1.7751007507635709e+01 1.4147971468138564e+01 1.1510480618244257e+01 0 0 -1
3394 1 1.2292038904748830e+00 1.4590949152364418e+01 1.0957593544096714e+01 0 1 0
3862 1 3.8902088295849180e+00 1.4951568196664658e+01 1.1782309490478930e+01 2 1 1
1088 1 9.5215386740117705e+00 1.5395079014968738e+01 1.1284037096249381e+01 0 0 0
2943 1 1.5257379683809443e+01 1.6792960041000583e+01 1.3120077951493478e+01 0 0 0
2777 1 1.6873899750922668e+01 1.7904577418565939e+01 1.1207192783309171e+01 1 -1 2
2676 1 1.9128953842009292e+01 1.6609557300593355e+01 1.1848335069854404e+01 -1 1 0
449 1 2.2407982800373766e+01 1.6938643557074386e+01 9.0994550231743165e+00 0 -1 0
2172 1 1.3225898764715508e+01 2.3666903360585792e+01 1.5944643566247901e+01 0 -1 0
2958 1 2.2722673067120560e+01 1.4552669915190528e+01 1.2094991548302366e+01 1 0 1
1326 1 3.5270682765305508e+00 1.9773878763745259e+01 1.1480751316408311e+01 0 1 0
2131 1 5.8149588373877270e+00 2.0827252461857700e+01 1.0613110029626659e+01 -1 1 -1
613 1 7.8198051035830725e+00 1.9009502298123547e+01 1.1105867535160884e+01 0 0 0
1224 1 1.0133148394495251e+01 2.0007215012181156e+01 1.0954866906708965e+01 0 -1 1
583 1 1.1447567898444740e+01 1.7495761441429526e+01 1.0998501510685063e+01 0 0 2
3611 1 1.6391496734308305e+01 2.0652902425482434e+01 1.0821121483162830e+01 -1 1 0
1582 1 1.5588130023331631e+01 2.1412614354978565e+01 1.3582984739438212e+01 -1 1 1
66 1 2.1051810119710726e+01 2.1167725551281428e+01 1.1875986835000948e+01 2 1 0
588 1 1.8625328175349338e+01 2.1781594868224264e+01 1.0501921165898988e+01 -1 1 1
2370 1 1.5704801650799958e+00 8.8530761902728550e+00 1.6566485984332857e+01 1 0 0
3566 1 2.2824358275908519e+01 1.9510234730112415e+01 1.0515257222633510e+01 0 0 0
352 1 1.7151584467572947e+00 2.1691163809065856e+01 1.1123152272738702e+01 0 1 0
1647 1 1.8673008609604571e+00 2.3726489858412034e+01 1.2984505975384542e+01 1 1 1
1554 1 6.1090210068776800e+00 2.2724433206503129e+01 1.2558181223288164e+01 1 0 1
1695 1 1.0708179598113427e+01 2.2116996135683866e+01 1.2578835116236966e+01 -1 -2 2
857 1 1.0960647404942060e+01 2.4628958624383095e+01 1.1237158848409829e+01 2 1 0
3211 1 1.3185774304648133e+01 2.4310503127241038e+01 9.6176866635705931e+00 1 0 1
3934 1 1.5128310608553878e+01 2.3812524104424114e+01 1.1381325043565719e+01 1 -1 0
2092 1 1.8080461786269169e+01 2.4157284004069055e+01 1.1137591214151696e+01 -2 0 0
3014 1 2.2030288867951160e+01 2.3399561640607342e+01 1.2912127609858402e+01 1 -2 0
1083 1 4.5066131103643512e+00 2.4815285750181705e+01 1.5880408471356791e+01 2 0 0
3702 1 2.2493138095849332e+00 5.2714707066956956e-01 1.3805156889651135e+01 1 0 1
1074 1 1.5225399594406503e+00 1.7697527874986296e+01 1.0663272840507186e-01 1 1 -1
780 1 1.9569085247573526e-01 2.4798185864711407e+01 8.1335169107789778e+00 0 0 0
3729 1 8.1404733427726175e+00 1.0916021346372133e+00 1.4240745423006921e+01 1 2 -1
2822 1 1.0991659696944485e+01 1.5350171586987122e+00 1.3909449595442913e+01 0 -1 1
587 1 1.7175672530542219e+01 5.7686092537399325e-01 1.3755036852975435e+01 0 -1 1
464 1 1.8446028847563202e+01 2.7219453011267518e+00 1.4800054793063920e+01 -2 1 2
2852 1 2.1674873794503064e+01 2.3754329451084626e+01 1.5856785137809950e+01 -1 1 1
1168 1 2.4934164010143636e+01 3.1619766173415234e+00 1.4877482298648639e+01 -1 1 0
3008 1 1.8495333556072335e+01 1.8825989425431192e+01 2.2845841300109193e-01 1 0 1
2665 1 1.2067807998844429e+00 5.0453657344900753e+00 1.3367749897323250e+01 1 0 2
1864 1 5.0762580908096533e+00 3.4943944080922207e+00 1.2808225567287231e+01 -1 0 1
3328 1 6.0335589245228736e+00 5.8357342142172381e+00 1.3024411949401582e+01 1 -1 1
2273 1 1.9610735659143433e+01 2.4627348273136342e+01 2.6368519670647141e+00 1 -1 1
1520 1 8.4308318806319207e+00 7.0665386494193774e+00 1.3478630846623116e+01 2 2 1
415 1 1.3082547706523370e+01 6.3758427081925229e+00 1.4149822207605213e+01 1 -1 -1
2368 1 1.6238904425042744e+01 4.1806276468733259e+00 1.5379069535664033e+01 0 0 1
1749 1 2.0883147039639191e+01 6.3221964960652919e+00 1.4149448368437142e+01 0 2 0
2750 1 2.2273204514366945e+01 4.7626127648618910e+00 1.5824980737940047e+01 0 0 0
3624 1 3.9439440338066292e+00 9.9097093133519998e+00 1.5119873336923737e+01 1 0 -1
1313 1 4.9181453196509084e+00 7.3997846936356488e+00 1.5253631591691530e+01 2 2 -1
3637 1 8.9773560572379392e+00 9.6728584404376896e+00 1.3542126964178197e+01 1 3 0
2874 1 1.1484903878517866e+01 1.0609491094686952e+01 1.3894679600075413e+01 0 1 1
2788 1 1.5337614471587521e+01 9.9134475061726999e+00 1.3733817194849772e+01 1 -1 0
3473 1 1.8682357540108068e+01 7.7621328503810307e+00 1.5231381384850412e+01 1 0 -1
2970 1 1.9582247319392128e+01 1.0219960316896520e+01 1.5962477245841082e+01 0 2 0
3369 1 2.3802144270008252e+01 9.8941441332544997e+00 1.3001654230431525e+01 0 3 0
3305 1 8.7363866028141626e+00 2.4046532346405176e+01 1.5816812671139896e+01 -1 2 -1
1365 1 5.9699551291311428e+00 1.2531881373186648e+01 1.4616657243324154e+01 0 2 0
2100 1 4.6755521659657759e+00 3.4208216373013469e+00 1.5533455743757321e+01 0 1 0
3562 1 1.7297893748094804e+01 1.3797269294096331e+01 1.5942677859383869e+01 0 0 0
1965 1 2.3980231412896652e-01 7.6971816080695321e+00 9.7890268107335796e+00 0 2 0
1295 1 2.0446736271550414e+01 1.2125413377881568e+01 1.4369529865549660e+01 0 2 -1
3774 1 1.9985574007544798e+01 1.4446024050944141e+01 1.5617237383934745e+01 -2 2 -1
3577 1 7.7988495651227892e+00 1.1043648796063243e+01 1.5769223621693961e+01 0 -1 0
1499 1 2.3102990116338642e+01 1.2362196724224335e+01 1.3873447812785724e+01 -1 1 -1
2206 1 2.4684879382056717e+01 2.0932061360869227e+01 8.8555224578213423e+00 0 -2 -1
1707 1 2.8203758211542698e+00 1.4892488855426274e+01 1.5593441290245172e+01 -1 0 0
1270 1 4.5866082939745114e+00 1.6524465057469566e+01 1.3808620087539634e+01 0 -1 2
3405 1 6.4432475478730575e+00 1.4893463001752902e+01 1.5378567489649480e+01 0 0 0
3053 1 8.6851486607286805e+00 1.5729918441796849e+01 1.3961220064973103e+01 0 2 0
3307 1 1.1392083975537622e+01 1.5105089094217448e+01 1.4311198502704430e+01 2 1 -1
1407 1 1.5989999505562583e+01 1.4403994005037037e+01 1.3924490749945530e+01 -1 1 1
3501 1 2.1203419151126809e+01 1.5896287687246396e+01 1.3710882750357401e+01 -1 0 0
94 1 2.3111181039520194e+01 1.8248364612468681e+01 1.4748949563670445e+01 -1 -1 -1
1135 1 1.1111430310125767e+00 6.1794652114649287e+00 1.6120629871931474e+01 1 3 -2
1518 1 3.3576163033729300e+00 1.8738748673015206e+01 1.3994791989776880e+01 1 0 1
3852 1 3.6092982084928567e+00 2.0608009458800645e+01 1.5767285355449621e+01 1 -1 0
1789 1 7.5447170553774807e+00 1.8007555846849975e+01 1.3433440176972585e+01 0 0 0
2097 1 8.1389808033870850e+00 1.9745379964394509e+01 1.5408721767633725e+01 1 1 0
1385 1 1.2674834854130681e+01 1.7409798722708853e+01 1.3335586917095402e+01 0 -1 1
3649 1 1.2296308000400337e+01 1.9251622408272169e+01 1.5090846215299470e+01 0 0 1
3836 1 1.6396390105325072e+01 1.8987061267449832e+01 1.4631421716735669e+01 1 0 1
3232 1 1.8887909176849863e+01 1.9182007824213819e+01 1.5608459824915020e+01 0 -1 0
624 1 2.0625912359465747e+01 1.8739889908366386e+01 1.3489978186863816e+01 1 1 1
2320 1 4.1574963279719741e+00 2.2748483694524126e+01 1.4408399775203982e+01 2 0 0
521 1 8.4555220982287729e+00 2.2284798307331624e+01 1.3843017619888993e+01 0 0 1
1314 1 2.0684726099229387e+01 2.4093368853955384e+00 1.6396415271786172e+01 0 1 0
3618 1 1.7396458306954891e+01 2.4507610412326816e+01 6.5095363451411732e+00 0 0 0
3419 1 1.2684267034917111e+01 1.7071579933789089e+00 1.6026909251587597e+01 0 1 0
1322 1 2.4987717533942810e+01 1.3940827281215237e+01 1.5367803914790347e+01 -1 2 -1
1318 1 9.0658091287399820e+00 7.1756536107437725e+00 1.6484893154338309e+01 -1 1 -1
1146 1 2.1999064605205394e+01 1.6445779810117073e-01 1.5828492731238752e+01 0 0 2
2628 1 2.9938140239547875e+00 1.0820211617413644e+00 1.6286548276297218e+01 2 1 0
2698 1 1.9259607510513696e+01 2.2151776865240986e+01 1.6488633157036901e+01 0 0 0
2560 1 7.0701492339788619e+00 2.5507971135814249e+00 1.6605549454896270e+01 0 0 1
3144 1 2.3460525101369143e+01 7.0643735039041644e-02 8.3137717904054966e+00 -2 0 2
3020 1 7.7938076382149193e+00 1.8775250979743419e-01 6.0374317819574577e+00 1 0 0
3654 1 5.9318470187639987e+00 1.7328948850832134e+01 1.1623293616893460e-01 1 -1 -1
201 1 1.4346590667087492e+01 1.8494120946351526e+01 1.6550537663981213e+01 -1 0 1
2478 1 1.1574147226309249e+01 1.8606745092842800e+01 4.9816718235263124e-02 1 -1 1
334 1 8.7482755592359696e-01 9.0970871521207841e-01 1.7954518242167261e+01 1 -1 1
1759 1 1.5493504199193627e+01 2.2844799723279600e+01 1.7306158830780131e+01 0 1 -1
3443 1 2.0125505373799440e-01 7.8520131640443624e+00 3.1421941413283363e+01 1 1 -1
1669 1 2.4546749855926958e+01 1.7610031941507312e+01 3.2478262151101134e+01 0 2 -1
3506 1 1.5579888770708726e+01 2.8436738215087258e+00 1.9779154851022621e+01 1 2 0
2175 1 1.0507632802170798e+01 1.7115068346011135e+01 3.3166033933956072e+01 1 -1 0
3510 1 2.0068873055536237e+01 2.3673190521266960e+00 1.9371241112915794e+01 0 0 0
3508 1 1.5468899314341131e+00 2.4898084846460048e+01 3.3297800962463228e+01 1 0 -1
2378 1 2.2731666668479257e+01 3.2689823167962282e+00 1.9795696348930786e+01 0 -1 1
403 1 3.5935023890155771e+00 5.2884409787926172e+00 1.7254232974007476e+01 1 1 0
2656 1 8.7557221155081386e+00 4.5906105986625487e+00 1.7801876559278821e+01 2 1 1
1343 1 1.1383621055030364e+01 3.5143031030839440e+00 1.7635085224447455e+01 -1 0 0
2128 1 3.5390578101081980e+00 2.4051234311287310e+01 2.6195486758030622e+01 0 0 1
3889 1 2.3381604905971546e+01 1.6365739485514363e-01 3.0227576940446163e+01 0 2 1
3398 1 1.8152097161289387e+01 6.5687251968180851e+00 1.9289288409416045e+01 0 0 2
3828 1 2.2941926623694510e+01 5.5831237941997047e+00 1.8283807813856253e+01 1 0 3
1356 1 1.7701359717334575e+00 9.0488716515394927e+00 1.9336043244491933e+01 0 -1 -1
3533 1 2.0915175868838748e-01 8.9790252207278414e+00 2.4500596856275248e+01 0 0 1
3315 1 1.6322968077306847e+01 6.5563444542996114e+00 3.3030295475090682e+01 -1 1 -1
1150 1 6.2195050872691775e+00 8.5054774670184834e+00 1.9367404178326645e+01 0 0 -1
3815 1 1.1293720135309462e+01 8.0615883488261613e+00 1.7370580076976157e+01 2 1 0
1380 1 9.4959188240727208e+00 1.0762460649704140e+01 3.0556130072344036e+01 0 -1 1
1377 1 1.4964918855273964e+01 7.3839200321009946e+00 1.7244326996036520e+01 0 0 0
2239 1 1.4996512580846245e+01 7.5863015073782565e+00 2.0019739233785554e+01 0 1 -1
725 1 2.0972864004553688e+01 9.6581332094713446e+00 1.8218211085518426e+01 0 -1 2