LAMMPS data file via write_data, version 12 Dec 2018, timestep = 200000

3956 atoms
1 atom types

1.9822925850223783e-01 4.9801770741498714e+01 xlo xhi
1.9822925850223783e-01 4.9801770741498714e+01 ylo yhi
1.9822925850223783e-01 4.9801770741498714e+01 zlo zhi

Masses

1 18.15

Atoms # atomic

2795 1 1.7338244525332463e+01 6.0516427557840990e-01 1.2700558541502358e+00 0 0 1
2319 1 2.7325228376244106e+00 3.8255802791532236e+00 3.3595369525264349e+00 0 0 0
2564 1 8.4878442302643631e+00 9.7867251808940370e-01 6.9524435164258405e+00 1 0 0
1568 1 2.4917179960052291e+01 6.5463336233241556e+00 1.0500258901327829e+01 0 1 0
3367 1 1.4616522969387951e+01 3.6354938402473405e+00 2.9127588377514892e+00 0 0 0
2549 1 1.6474546828269013e+01 3.7848239722371986e+00 8.4492192406721212e-01 0 0 0
1167 1 9.0353413139535412e+00 2.3820712865930020e+01 6.5202103804406990e+00 0 0 0
2212 1 1.8890878706658956e+01 4.2968225668900422e+00 2.0227163302379632e+00 0 0 0
199 1 2.3002632234878963e+01 2.1393367473093203e+00 3.1772230251704343e+00 0 0 0
2445 1 2.3228096522214603e+01 4.6557036499945061e+00 1.5862740038035068e+00 0 0 0
391 1 3.3324309786847182e+00 6.9306203083063078e+00 1.6301344828884552e+00 0 0 1
3725 1 6.1838931821005660e+00 5.1270033092324665e+00 1.8147095873221255e+00 1 1 1
2067 1 1.0102345110182252e+01 7.3396119431027369e+00 1.8500807007323499e+00 1 0 0
1376 1 1.2331568529354486e+01 4.2619027437288617e+00 1.5096372208265634e+00 0 1 0
2154 1 1.2892859837161952e+01 7.0958669431682733e+00 1.0509488872702319e+00 1 0 0
2002 1 2.3963936884298565e+01 4.0881802555977931e-01 7.1155904529106637e+00 0 0 0
752 1 2.3181246964339994e+01 6.7364207699575722e+00 3.5109683395545601e+00 0 0 1
1629 1 3.6184768422397715e+00 9.2876201466958026e+00 3.7464600210649812e+00 0 0 1
859 1 7.8934872123311441e+00 9.1870536334411064e+00 3.4797414103082684e+00 0 0 1
3108 1 7.3076315114394363e+00 9.8374712026041138e+00 5.8828459023736879e-01 1 0 0
332 1 1.3784955609538837e+01 1.0202764023751273e+01 1.2607950213515340e+00 1 0 0
419 1 1.1322202305021827e+01 1.1704684349380031e+01 1.5699139467073235e+00 0 0 0
422 1 1.6171836630862337e+01 8.0814891274675666e+00 1.5836901257227236e+00 0 0 0
2513 1 1.4986756475733845e+01 1.1526542805281839e+01 3.3615880505085087e+00 1 0 0
955 1 1.8192593631457854e+01 9.6600696756460955e+00 1.0365089871714874e+00 0 0 1
234 1 2.0423777571800137e+01 8.3698889028862364e+00 1.2957788969483712e+00 0 0 0
368 1 1.7646461626390902e+01 1.1629386137265742e+01 2.6704821250618798e+00 0 0 0
3444 1 2.4300966308342492e+01 1.0287009132800932e+01 2.5040569841652514e+00 0 1 0
3951 1 1.6856163233631301e+00 6.4037363272522514e+00 6.1711017985245533e+00 1 0 1
3098 1 6.7219425833836421e-01 1.5287488808706884e+01 4.2054279143995199e+00 1 1 0
3644 1 3.6945979123264077e+00 1.1408511687936407e+01 2.0780510859927359e+00 1 0 1
40 1 6.4662765758188918e+00 1.2104769954118357e+01 2.6061559861715442e+00 0 0 0
3202 1 5.3137405506831605e+00 1.5267610039421452e+01 4.1352478476360481e+00 1 0 0
2028 1 1.2963719511650694e+01 1.3966277107834733e+01 8.8385348927352125e-01 0 0 0
3106 1 1.2498033583378875e+01 1.7533814678585951e+01 2.2084503639527835e+00 0 0 0
3740 1 1.4520056019930074e+01 1.4418562891162299e+01 3.1201556070887295e+00 1 0 1
2347 1 1.8128758700767118e+01 1.3893826544911379e+01 1.6830541358837281e+00 0 0 0
3009 1 2.0920684143536057e+01 1.3933892028624619e+01 1.8891720786362918e+00 1 0 0
36 1 2.3641493092627975e+01 4.8847224631529000e+00 5.6151476408971188e+00 -1 0 0
2569 1 2.0855560218396331e+01 1.6301261117136828e+01 5.2205314970604544e-01 0 0 1
579 1 9.1963560641155802e+00 1.3629356793897882e+01 2.1182442466881075e+00 0 0 0
1198 1 7.3927556149619802e+00 1.6032832484879236e+01 2.6571284974965610e+00 1 0 0
621 1 2.3525451784638495e+01 1.5424768210757481e+01 1.4918727433405548e+00 0 0 1
2814 1 1.6975233350985921e+01 1.5640150785770402e+01 3.4767446645979918e+00 0 0 1
2960 1 1.6971891372062331e+01 1.8423678598233899e+01 2.7917149155669176e+00 0 0 1
2952 1 3.7225063302404302e+00 1.6511538129268580e+01 6.1957891150831690e-01 1 0 1
1869 1 1.4273391289037303e+01 2.4701366542370380e+01 3.8779133719049814e+00 0 0 1
3148 1 1.0496382413131409e+00 9.2603603585283807e+00 4.8476510472012846e+00 1 1 0
338 1 6.7083186670566759e+00 6.1199599598299970e-01 1.9973155746683897e+00 1 0 0
255 1 6.3013105474469624e+00 2.2164368097340208e+01 2.4625742155556600e+00 1 0 0
1121 1 2.1487950348601634e+00 1.7679726737259671e+01 5.1768892492116541e+00 0 0 0
175 1 8.4262982562458184e+00 1.8782666463642705e+01 2.3859181569357282e+00 0 0 0
1882 1 1.4560437834359586e+01 1.9242053769693666e+01 3.4866048094492683e+00 0 0 1
26 1 1.3927058761693283e+01 2.1931616273499653e+01 3.7251528874787629e+00 0 0 0
2872 1 2.4456229337584610e+01 1.9088349500423778e+01 1.0547380455398403e+00 0 0 1
1658 1 1.8211229230790632e+01 2.1106331371427849e+01 2.6818456699219695e+00 0 0 1
3081 1 8.3249173172256867e+00 3.2595933417888387e+00 6.7388427148916152e-01 1 1 0
318 1 2.1889248224583692e+01 1.8392754572168286e+01 1.9266532513529093e+00 0 0 0
1254 1 2.1170491235582826e+01 1.4390228449652595e+01 1.6074744807241917e+01 0 1 0
2951 1 1.9291518732167532e+01 8.9533277009445578e-01 1.5883841821613807e+01 0 0 1
636 1 2.3218306506854351e+01 4.7826372705499205e+00 1.6407228812327073e+01 0 0 0
2326 1 8.4694009597368325e+00 2.3978126259198071e+01 2.0018568863150890e+00 1 0 0
1943 1 1.0444147531330264e+01 2.0598798115865208e+01 1.3002121985051294e+00 0 0 1
514 1 1.1256855988846594e+01 2.1960238480811633e+01 3.6462821662498084e+00 0 1 0
1867 1 4.6315421473576270e+00 1.8044562816593473e+01 1.6640702257962520e+01 0 0 1
2031 1 1.3906663325221789e+00 1.3212983547598954e+01 7.9985484816179842e+00 1 0 0
3109 1 1.5830275641111422e+01 2.1511914119278593e+01 1.3406317789170128e+00 0 0 0
986 1 1.9519474434825483e+01 2.3358823804390962e+01 3.0420039447870857e+00 0 0 0
72 1 1.8402021730649141e+00 1.6640558973503448e+00 1.5967774982965091e+01 0 0 0
2221 1 4.4199213697337192e-01 1.6005164675889553e+01 1.1487988787057718e+01 1 0 0
3433 1 2.9114564887267425e+00 1.3224953685604597e+00 5.3100488701062618e+00 1 1 0
2041 1 5.1628627577205632e+00 2.6926713437408027e+00 2.3286586001630969e+00 0 0 1
796 1 5.5983420689260281e+00 2.0074018846783073e+00 5.1650749162145173e+00 0 0 1
826 1 1.1373313354268154e+01 1.7541163466862293e+00 4.2499376586872737e+00 0 0 1
588 1 2.2354278023867060e+01 9.7494667086250715e+00 4.6134029150766259e-01 0 0 1
1968 1 1.4310882368335790e+01 1.3485120021282457e+00 4.6788844336309579e+00 0 0 0
1437 1 2.0163217352553733e+01 2.5405100655823958e+00 7.2540803908350648e+00 0 1 0
1212 1 1.3024679988648060e+01 2.4633180649019753e+01 1.6036336302495020e+01 0 0 0
106 1 2.2461157389573980e+01 2.3762448454561511e+00 5.9057294332570942e+00 0 0 0
120 1 9.3998991200215780e+00 1.7302246576534557e+01 1.6612469961000240e+01 0 0 0
543 1 3.8463238432152873e+00 5.8755580082166405e+00 4.6733141950745525e+00 0 0 0
323 1 7.3292247607376364e+00 6.5408260232735431e+00 4.4710623614633596e+00 0 0 0
1931 1 5.6817583831421725e+00 5.6959868259802402e+00 6.6089544715296844e+00 0 1 1
1104 1 9.8352889037441003e+00 5.4071460629305212e+00 5.0710648257059345e+00 0 1 0
2660 1 1.2036375498232729e+01 7.0391792517566634e+00 4.3929673781418463e+00 1 0 1
2901 1 1.4569669138420014e+01 5.5213234092133119e+00 5.0307955981430732e+00 0 0 1
3307 1 1.6597978138447665e+01 6.8404258496368504e+00 4.0198820284160979e+00 1 1 0
82 1 1.9223112630127265e+01 5.7837733538498881e+00 4.0577940035737781e+00 0 0 0
2141 1 2.0769788047905450e+01 7.7334819541577895e+00 3.9424323498713854e+00 -1 0 0
762 1 1.9751632746203057e+01 5.0127975418004125e+00 6.6450907011319931e+00 0 0 1
1102 1 2.1739985096822743e+01 8.7394256315307022e+00 7.8591553604623980e+00 0 1 0
2266 1 2.4800432196726256e+01 2.3967109069276475e+01 7.1615161248861945e+00 0 0 0
717 1 6.3697603050300007e+00 8.4213691020140082e+00 7.4540657951344125e+00 0 0 1
3248 1 5.9450305434090946e+00 9.8872642590968489e+00 5.2484484848526920e+00 1 1 0
152 1 1.2007392979679350e+01 9.6454920886852857e+00 5.7108455445025825e+00 0 0 0
29 1 1.4243757689058153e+01 1.1044459679124520e+01 5.7164155996403938e+00 0 0 0
1365 1 1.6603978237642334e+01 9.3516568768444177e+00 5.5411680402171113e+00 0 1 0
1436 1 2.1078700866700906e+01 9.8967332455175931e+00 5.5042230356030579e+00 0 1 0
2351 1 2.3578804684770063e+01 1.1127279818574076e+01 4.6769785523855472e+00 0 0 0
3295 1 3.2246300342349077e+00 1.2045353996892985e+01 5.2333478798647350e+00 1 1 0
3474 1 4.0581442584490901e+00 1.3738189451403924e+01 7.9634813038641248e+00 1 1 0
2887 1 6.3819584165252721e+00 1.2727771509601713e+01 5.4871905153049383e+00 0 0 1
850 1 1.0174334074681012e+01 1.0702669507856745e+01 4.0724845865399191e+00 0 0 1
2076 1 1.8034598818200443e+01 1.2736723498034438e+01 7.0756004822149023e+00 0 0 0
165 1 1.5259746828188785e+01 1.1575142543565530e+01 8.1200395332101927e+00 0 0 0
613 1 1.8598076534870337e+01 1.0789849484331592e+01 5.3292275506768254e+00 0 0 0
2034 1 2.1307892598893350e+01 1.4595673060433310e+01 5.8836200104559202e+00 0 0 0
2701 1 2.2456781864195897e+01 1.3556386314053249e+01 4.0212502287175207e+00 0 0 1
244 1 3.1594452471369991e+00 1.6633323688216027e+01 7.3750851178741890e+00 0 0 0
3483 1 6.0317751066435648e+00 1.6067961174041379e+01 6.4878120829744113e+00 1 0 1
845 1 3.9483971391318109e+00 1.8159655984871314e+01 3.1352318150657510e+00 0 0 1
809 1 8.4770980244690328e+00 1.5947370337861631e+01 7.0518123514349114e+00 0 0 1
595 1 1.2763700677558628e+01 1.5146809930924075e+01 4.9287160234749026e+00 0 0 0
390 1 9.8549736989496370e+00 1.4753414930409853e+01 4.5893087262155134e+00 0 0 0
2999 1 1.3768587646909582e+01 1.7665045992549388e+01 5.9651987525156782e+00 1 0 0
62 1 1.8650136051178649e+01 1.5040855325820290e+01 5.8087505541087951e+00 0 0 1
2557 1 1.8566227404707192e+01 1.7421075010448870e+01 6.9512772768069491e+00 0 0 0
2107 1 2.2787432080085303e+01 1.6957802898943079e+01 7.2450937487097233e+00 0 0 0
2459 1 1.3976916640255570e+00 2.0145595951379441e+01 5.3290486788688911e+00 1 0 0
2387 1 6.2131608896367423e+00 1.9699981328995349e+01 3.4907178062441497e+00 0 0 1
2173 1 1.0273856218482797e+01 1.7681562224994405e+01 4.2647648545039116e+00 0 0 0
236 1 1.4823645057942075e+01 2.2031624558032075e+01 6.3875648784747057e+00 0 0 0
2759 1 1.8919718927065976e+01 1.9552054805728197e+01 5.0003418057681737e+00 0 0 1
956 1 2.3777589323368133e+01 1.8627705259543138e+01 5.6494086229440512e+00 0 0 0
1153 1 2.1839516355778279e+01 1.9761270094253245e+01 4.1307713539698625e+00 0 0 0
2958 1 2.1181810538092023e+00 2.2628869089305130e+01 4.0369441230921996e+00 1 0 1
3848 1 2.3286052688105148e+01 2.0727136194667448e+01 1.1485731486100683e+01 0 0 0
2854 1 4.1881403835760285e+00 2.3483974815186187e+01 5.5527616715710426e+00 0 -1 1
3681 1 6.6412864326544252e-01 2.4937875112432565e+01 4.5427891276298045e+00 1 0 1
3164 1 7.7152076679213080e+00 2.1830678157431493e+01 1.3309947629673838e+01 1 1 0
1927 1 1.0608187105488023e+01 2.1630608834463462e+01 6.0196165890074829e+00 0 0 1
3037 1 1.8226348819621855e+01 2.4137471701967094e+01 5.2796990611272339e+00 0 0 0
2138 1 2.2227071082154431e+01 2.4107633331631511e+01 6.5334808105432645e+00 0 0 0
645 1 2.2029983942347211e+01 2.2637841330476629e+01 4.3678827934767126e+00 0 0 0
443 1 3.5724786651450411e+00 2.5203287217399555e+00 8.5235532360490875e+00 1 0 0
1122 1 1.3768347682676394e+01 1.8406171921309664e+01 1.6528161414278703e+01 0 0 0
3007 1 8.5062302808290937e+00 3.7258176881886267e+00 9.1854352698930501e+00 1 1 0
2831 1 1.1262962562968413e+01 2.5312952205984818e+00 7.0546176005121080e+00 1 0 1
1107 1 1.3244834849178467e+01 1.4518895462458996e+00 8.3246813252880916e+00 0 1 0
1978 1 1.5770118189366748e+01 2.1383622753835052e+00 6.9918382002589166e+00 0 1 1
3113 1 1.8349661939307577e+01 6.7744374728090118e-01 7.7086946201807516e+00 0 1 0
1957 1 2.0382366626190965e+01 2.0687473461846904e+00 1.0103111699733049e+01 0 1 1
3301 1 1.9580434143135548e+01 2.4900097503795983e+01 1.1795267336505136e+01 1 0 0
2170 1 8.1367883862485191e-01 8.8812836738482410e+00 8.2458084205974966e+00 1 0 0
1450 1 1.5928846042061073e+01 1.6814159929580022e+01 1.6001854550323912e+01 0 1 0
2478 1 9.8754940887763043e-01 3.4220399149199747e+00 9.0581623707277075e+00 1 0 0
2106 1 6.8289226302152928e+00 3.5322896631156717e+00 7.2478559007604275e+00 1 0 1
2834 1 1.0954528417694680e+01 5.4408910070582097e+00 7.9894786669768054e+00 1 0 1
2821 1 1.3552895318391794e+01 4.5360392236114633e+00 9.2481896325173683e+00 1 0 1
1386 1 1.5443373238688626e+01 5.0864959979605517e+00 7.5395147981501323e+00 0 0 0
1019 1 1.8617422869249111e+01 3.8221317630853773e+00 1.1433876762995778e+01 0 0 0
1278 1 2.2134594868323745e+01 6.1912609638300493e+00 7.8089533726468634e+00 0 1 0
3287 1 2.2658582304758717e+01 5.3892246761227511e+00 1.0184321914228974e+01 0 0 0
146 1 2.0843619501805373e+00 6.6988441227153990e+00 9.4115569240263586e+00 0 0 0
2724 1 4.5685700369211810e+00 7.6354568119961561e+00 9.4787532745986987e+00 1 0 1
2064 1 9.8331901009753047e+00 8.2897790512935252e+00 1.0412652869452726e+01 1 0 0
2171 1 8.0269122381335620e+00 9.8585920492687507e+00 9.3818502788706954e+00 1 0 0
622 1 1.1843787763580769e+01 8.2529148797997038e+00 8.3875025575907838e+00 0 0 0
2249 1 1.7524397110169080e+01 6.3425759219848441e+00 8.2255784656908055e+00 0 0 0
3497 1 1.4425266071595487e+01 8.0285511852521552e+00 9.4745572943564973e+00 0 1 0
2257 1 1.9627385826345758e+01 9.9294193380325968e+00 9.0401155485902738e+00 1 0 0
1064 1 1.7190948396276543e+01 8.9206414084243963e+00 8.2518586083390453e+00 0 1 0
416 1 1.0874699572220296e+01 1.1681199251561791e+01 1.6609380369863807e+01 0 0 0
891 1 4.7271946154288003e+00 9.7834192264366671e+00 1.1229095110891507e+01 0 0 1
3116 1 5.9848204591201055e+00 1.3456824042004941e+01 1.0073850936031794e+01 1 0 0
1024 1 8.9353817736563101e+00 1.2481722133001220e+01 5.6816302006269970e+00 0 0 0
297 1 9.4527494038283031e+00 1.1999815270361534e+01 8.2814177941141711e+00 0 0 0
2258 1 1.3266752256885544e+01 1.3748394669053692e+01 7.5091073658771883e+00 1 0 0
670 1 1.1722925929745799e+01 1.2387087886348420e+01 9.4099700451901160e+00 0 0 0
3426 1 1.7826238000672856e+01 1.3673568592412773e+01 1.0414284728138004e+01 0 1 0
1913 1 2.4068254411515323e+01 1.0187427246763850e+01 8.3630153238926059e+00 0 0 1
3593 1 2.2515517128768092e+01 1.2842444249188404e+01 7.7266541327919400e+00 0 1 0
279 1 2.0710761368423881e+01 6.0497379150794464e+00 4.6225839805274227e-01 0 0 0
77 1 2.7899861114871238e+00 2.0305531771698245e+01 1.1200912935926530e+01 0 0 0
1535 1 2.3220524352299837e+01 2.1139719880477717e+01 1.5619103540335201e+01 0 0 0
2820 1 3.9995385442848970e+00 1.7903915962179923e+01 9.6952081025432229e+00 1 0 1
1389 1 1.2216490746476252e+01 1.5827956534233859e+01 9.2654735859656654e+00 0 0 0
950 1 8.7398796291486160e+00 1.8231064795415708e+01 8.4795661543510139e+00 0 0 1
3514 1 1.1707005486122730e+01 1.7844873980558535e+01 7.6651856726715248e+00 1 1 0
1919 1 1.5704206096868768e+01 1.4852988346437780e+01 9.0098111545200865e+00 0 0 1
304 1 2.0724261240865005e+01 1.7549114246758649e+01 8.6810183194322885e+00 0 0 0
2189 1 1.9811404411950271e+01 1.2850015875027292e+01 8.9587199784958376e+00 0 0 0
513 1 1.9774999276489709e+00 2.0224696349594605e+01 8.1837476320526790e+00 0 0 1
603 1 1.7465730263200406e+01 2.2868282288463419e+01 1.4997210292295071e+01 0 1 0
274 1 4.2954324602374516e+00 2.1366155006363481e+01 7.4270850980830367e+00 0 0 0
2919 1 6.6482802220897756e+00 1.9304025375256767e+01 9.6058332970001139e+00 1 0 1
264 1 5.9500441843731338e+00 1.9225122736166778e+01 6.3358000243721566e+00 0 0 0
113 1 1.2466646269870919e+01 2.2792035486575163e+01 7.6543441841705429e+00 0 0 1
237 1 8.9705997407936593e+00 1.9570943485782816e+01 5.8991607958073935e+00 0 0 0
3129 1 1.2217604970432179e+01 2.2438563042202809e+01 1.0179456002153771e+01 1 0 0
307 1 1.5981339360058509e+01 1.7548333837807480e+01 7.8244613174983986e+00 0 0 0
1697 1 1.5610124512946271e+01 2.0006596622769909e+01 8.8172701016543655e+00 0 0 1
2651 1 2.2189073789896391e+01 2.0093078473514819e+01 8.6663096499520922e+00 0 0 1
3345 1 3.5862331124047135e+00 2.2135354706759781e+01 1.5585833612497508e+01 1 0 0
1062 1 1.3390233964906395e+01 2.1971075305594290e+01 1.4977309263161164e+01 0 0 0
1306 1 3.3537045902553403e-01 5.5963173929488406e+00 1.5056065896785706e+01 1 1 0
485 1 7.8369220676730320e+00 2.4411548899417983e+01 9.0184996531689290e+00 0 0 0
734 1 1.0942940244663314e+01 1.5730880606490560e+01 1.0452247532405896e+00 0 0 1
324 1 1.7952980180562998e+00 1.0816530635667370e+01 1.4835638085558191e+01 1 0 0
2245 1 1.8261872178988604e+01 2.1625961720961307e+01 6.5721553067145946e+00 0 0 0
2891 1 2.1061693389120379e+01 2.2320646822775807e+01 7.9866943855023758e+00 1 0 1
1520 1 2.2927948144889805e+00 2.2888725630551225e+01 1.3871263134294298e+00 0 0 1
497 1 1.6101997235128870e+01 2.4446701850238910e+01 7.7384856755227123e+00 0 0 0
1206 1 6.4243935924896514e+00 1.5527996531863630e+01 5.0057838119895315e-01 0 0 0
396 1 1.9102516917628286e+01 1.0499684695090377e+01 1.5508764281375159e+01 0 0 0
3456 1 5.1208859055355553e+00 1.8081756115208520e+00 1.2049506247322608e+01 1 1 0
2349 1 9.3357619466543920e+00 1.0327457280553256e+00 1.0595747261729356e+01 1 0 0
278 1 1.1392064852193153e+01 1.3593410268898687e+00 1.2455492248810367e+01 0 0 0
500 1 1.6275293993069660e+01 2.3049608557906280e+00 1.2409454251887777e+01 0 0 0
2714 1 1.6960160884818499e+01 2.1726722957971996e+00 1.4808520317215597e+01 1 0 1
869 1 2.4401875917952656e+00 1.0638064982854253e+01 9.6542504501180062e+00 0 0 1
1577 1 2.3067896974450040e+01 2.7970629346681606e+00 1.0770576766002003e+01 0 1 0
2709 1 6.8035402022312867e+00 2.4799686755385785e+01 1.2813791490336596e+01 1 0 1
3005 1 3.8253532912582258e+00 2.4795026042665079e+01 8.0324158922120823e+00 1 0 0
1009 1 2.4685404097452270e+01 1.5650715617986984e+01 8.6493228622003109e+00 0 1 0
3072 1 5.6075206727482954e+00 3.6958941292507843e+00 1.0281744575056674e+01 1 1 0
2124 1 6.1904665681869657e+00 6.2046414000255830e+00 1.1497311168486586e+01 1 0 0
957 1 8.7836754961180166e+00 5.7884484464372612e+00 1.0901822917010781e+01 0 0 0
790 1 1.0060670090406031e+01 4.7669921820655174e+00 1.2828812350861812e+01 0 0 0
2213 1 1.4459340847115335e+01 4.2786417178137919e+00 1.2030287717826456e+01 1 0 0
1532 1 1.7750023216897763e+01 6.1927208615590681e+00 1.0757503101887549e+01 0 1 0
1920 1 1.5503795369334926e+01 6.8913292029739637e+00 1.2043390604266218e+01 1 0 1
78 1 2.0328439472173073e+01 4.7757619486741527e+00 1.3584202923106867e+01 0 0 0
2316 1 1.3737101860070224e+00 1.1656550379919359e+01 5.9110912217437317e-01 1 0 0
2864 1 2.1504277905767736e+01 6.8668615320878832e+00 1.2326013054923308e+01 1 0 1
3468 1 2.3296440041818793e+00 6.9517447655113731e+00 1.2446371908996403e+01 1 0 1
3634 1 6.8582774873430292e+00 1.1260323649850580e+01 1.1128947576383785e+01 1 0 1
227 1 7.6595436218123316e+00 1.0456801141168096e+01 1.3458739697868721e+01 0 0 0
731 1 9.9868676102972547e+00 9.0544951457806704e+00 1.3028525095695418e+01 0 0 0
1236 1 1.9592697852754153e+01 8.5582441507096778e+00 1.1480615248563431e+01 0 0 0
3149 1 2.4462392243016776e+01 8.7125749956024006e+00 1.2169000862950172e+01 0 1 0
2733 1 3.0546405054392403e+00 1.1855351220283335e+01 1.2786862955101974e+01 0 0 0
2437 1 1.4961494760392153e+00 1.3549294448909089e+01 1.1066631719158442e+01 1 0 0
625 1 4.1767178212470020e+00 1.4211502424607865e+01 1.3881430856888283e+01 0 0 0
2476 1 8.4322905066413956e+00 1.4334349151434832e+01 9.1523693453874344e+00 0 0 0
1047 1 7.4339982963786229e+00 1.5352150058644822e+01 1.3312642226218541e+01 0 1 0
3047 1 9.9514225865729617e+00 1.5856212888832800e+01 1.0765283930636132e+01 0 0 0
716 1 1.4114814632500842e+01 1.0653004345397719e+01 1.0631238812372988e+01 0 0 0
459 1 1.6808590792179231e+01 1.1624243798824494e+01 1.2079664114777977e+01 0 0 0
392 1 1.3874838380350884e+01 1.5354254213353830e+01 1.1183075283106058e+01 0 0 0
3203 1 2.1990417835958965e+01 1.0039884203830795e+01 1.2487029705333661e+01 1 0 0
2336 1 2.3524316842997489e+01 1.1610489135820623e+01 1.0696511217232407e+01 0 0 0
2085 1 8.2190150002599029e+00 2.2295574149095714e+01 1.6494534599715131e+01 1 0 0
2656 1 4.5651283144801207e+00 1.8455557731638358e+01 1.3888555840125862e+01 1 0 1
787 1 4.5736519173831800e+00 1.5664179399021018e+01 1.1484342384118410e+01 0 0 0
2628 1 7.3165752631866496e+00 1.8296334498265864e+01 1.3875675386203470e+01 0 0 1
370 1 1.0476732528549807e+01 1.8598719262308400e+01 1.1084565275340109e+01 0 0 0
1209 1 1.4150367295317270e+01 1.8276007133417814e+01 1.2005809788730952e+01 0 0 0
937 1 2.0552116274380989e+01 1.5612076087258105e+01 1.0413921713049413e+01 0 0 1
3502 1 1.8792723318764143e+01 1.6260441682661453e+00 3.5405154195634427e+00 1 1 0
2572 1 2.3145208077599253e+01 1.4492635713774559e+01 1.0761175463576272e+01 0 0 0
1135 1 2.0775902799950972e+00 1.7813866921486568e+01 1.3007472508020600e+01 0 1 0
1295 1 4.2210808016920670e-01 2.1690964951644052e+01 1.2067799810460716e+01 0 0 0
3229 1 4.6331287086238451e+00 2.3345706115868214e+01 1.1455992726231266e+01 0 1 0
3430 1 4.4272392127479092e+00 2.1097229225787299e+01 1.3167594392516838e+01 1 1 0
875 1 8.0501403280436996e+00 1.9482146538989738e+01 1.1930418067771051e+01 0 0 1
2394 1 1.0288341187350595e+01 2.2264063920698455e+01 1.2115261169038490e+01 1 0 0
1028 1 1.2383412296184249e+01 1.8311683010539959e+01 1.4197361870754937e+01 0 0 0
2368 1 1.2801384315124050e+01 1.9632604213369490e+01 9.9882696969612379e+00 0 0 0
2586 1 1.6336752044453107e+01 2.0034266987428822e+01 1.2092977244027455e+01 0 0 0
3519 1 1.9792874006373253e+01 1.6834602388880029e+01 1.2473348846850069e+01 0 1 0
540 1 1.0057420554249218e+01 3.7632646883426846e+00 2.8018451847361066e+00 0 0 1
2344 1 2.1912544004214713e+01 1.7408225177407768e+01 1.4410809385039707e+01 0 0 0
2392 1 1.9485300492071220e+00 2.3897835442755525e+01 1.1983168518617187e+01 1 0 0
2151 1 5.9709796235234434e+00 2.2132743869058675e+01 9.4638000225032428e+00 1 0 0
3635 1 1.6798269251054174e+00 4.4544537503345376e+00 1.2819199565431340e+01 1 0 0
990 1 9.4055359804103862e+00 1.9878685833749199e+01 1.5745641909767370e+01 0 0 0
411 1 1.4445960536852683e+01 2.3869538438063387e+01 1.1460142571454043e+01 0 0 0
2817 1 1.5434264809142991e+01 2.2151519997440470e+01 1.3418695957499255e+01 1 0 1
1671 1 1.6970297209669315e+01 2.4135502851373786e+01 1.0277161699229445e+01 0 1 1
2929 1 1.8183534854384721e+01 2.1334237414295607e+01 9.7052627567266114e+00 1 0 1
3267 1 2.1322374543647623e+01 2.3929986721999370e+01 1.0047521106920659e+01 0 0 0
413 1 2.4871267264321556e+01 2.5416349643724003e+00 1.3804917067349114e+01 0 0 0
989 1 2.5043365045914503e+00 2.0017557593697926e+01 1.6772108601098805e+00 0 0 0
2388 1 2.0154873051189664e+01 1.9644550841350735e+01 1.1096836302471443e+01 0 0 0
2806 1 1.9952212935697094e+01 2.0223034268589007e+01 7.9798497562472448e-01 0 0 1
2406 1 7.7365885919846304e+00 1.1120054886638331e+00 1.2987335803444576e+01 1 0 0
3405 1 1.6493819968553986e+01 5.7055678287896185e+00 1.6135185665672896e+01 0 1 0
293 1 2.3955125254005484e+01 1.5730528313467605e+01 1.2785672109045754e+01 1 0 0
1300 1 2.2304135584494876e+01 2.8538074825146591e+00 1.3872601634344148e+01 0 1 0
925 1 3.4237573980157006e+00 3.1402656407529976e+00 1.4094525507795646e+01 0 0 1
349 1 1.1424249640504630e+01 2.0641169804415618e+01 1.4045711880300745e+01 0 0 0
251 1 6.0535356430186749e+00 4.6427958968784937e+00 1.3932397163299390e+01 0 0 0
593 1 1.0206001227209702e+01 6.9262309723034079e+00 1.4255864127667259e+01 0 0 0
1069 1 8.2945333876793725e+00 3.4392667962072840e+00 1.3908919022580061e+01 0 1 0
87 1 1.2440624994435957e+01 3.5394542520950414e+00 1.3626567346812438e+01 0 0 0
714 1 1.8709961635875057e+01 1.3432366630007200e+01 1.5588260033474924e+01 0 0 0
499 1 1.2177039355746858e+01 6.8529749535757647e+00 1.5968545608556063e+01 0 0 0
2688 1 1.7764939950733364e+01 1.8248242942766222e+01 1.3766263546633501e+01 1 0 1
1215 1 1.8674004598400188e+01 4.0761588302781320e+00 1.5663806023468897e+01 0 1 0
310 1 2.2606133046957201e+01 7.0637538853601356e+00 1.5234630953599817e+01 0 1 0
430 1 4.0088358758828164e+00 9.0172720540192657e+00 1.5582171618117204e+01 0 0 0
3548 1 5.7319977182431874e+00 8.3342397254217619e+00 1.3567702819596722e+01 1 1 0
2045 1 7.6134991776282357e+00 6.9423312469120537e+00 1.5060984721394304e+01 1 0 0
1883 1 2.0629075936238213e+00 3.7791907539214344e+00 4.4372092365823151e-01 0 0 1
1217 1 1.4018218311059886e+01 8.9395248348619507e+00 1.5460501948023328e+01 0 1 0
393 1 1.6097929528965636e+01 7.8831258382644478e+00 1.4346389913512070e+01 0 0 0
206 1 2.4513003080996576e+01 2.3206638545989900e+01 2.7481699778432072e+00 0 0 0
1861 1 1.8190218787143589e+01 9.4236870773845034e+00 1.3412344240254967e+01 0 0 1
257 1 1.0748400012418848e+01 2.4796645193440686e+01 3.2209963543274984e+00 0 0 0
361 1 5.7800589276576302e+00 1.3578637293626862e+01 1.5997950840098868e+01 0 0 0
2668 1 9.8771200415417795e+00 2.4601187770312212e+01 1.5857108191549472e+01 1 0 1
2561 1 8.2103832385278910e+00 1.1759682529564850e+01 1.5663688982877947e+01 1 0 0
1351 1 1.2248583586110847e+01 1.0405912569374694e+01 1.4311154475335570e+01 0 0 0
239 1 9.7032113406271510e+00 1.4097772466285631e+01 1.3929640667377406e+01 0 0 0
974 1 1.4469616901440377e+01 1.2464196054639936e+01 1.3584897378387334e+01 0 0 1
2280 1 1.5538913308789931e+01 1.5177281229862333e+01 1.3708210819646483e+01 0 0 0
3319 1 2.3753672226415290e+01 2.3646930963491624e+01 1.4112935599878117e+01 0 0 0
1291 1 2.0036708594054598e+01 2.3143069419825402e+01 1.3815402338188509e+01 0 1 0
350 1 2.1802463353554646e+01 1.1452136391701250e+01 1.4816813317082179e+01 0 0 0
344 1 1.9903105628267155e+00 1.5291666928250594e+01 1.4642421731015206e+01 0 0 0
1210 1 2.3667262954646013e+01 2.3577386242083218e+01 1.1567240319605739e+01 0 0 0
779 1 1.3371590181185395e+01 4.4036709529523481e+00 1.6018944387781758e+01 0 0 0
2673 1 2.8021458872449849e+00 6.6457089373320342e+00 1.6545663967059948e+01 1 0 0
142 1 1.1191169532543398e+01 1.5797246518646121e+01 1.5186428767801646e+01 0 0 0
804 1 1.1754923530521303e+01 1.3288740961435362e+01 1.2188741361946400e+01 0 0 0
1087 1 1.8109022890328692e+01 1.4719153689734034e+01 1.3082237766502926e+01 0 0 0
2165 1 2.9376235834275679e+00 1.4112552443244622e+01 2.8535965960673622e+00 1 0 0
3292 1 2.3733969851911326e+01 1.3933978107848029e+01 1.4687249675601624e+01 0 1 0
2166 1 2.1129967233682166e+01 2.0452312224411404e+01 1.3679224496803304e+01 0 0 0
1754 1 1.8683616218643488e+00 2.0511359373502167e+01 1.6582561041536469e+01 0 0 0
1748 1 6.9874122454648635e+00 2.3934548603223224e+01 4.7768786297923596e+00 0 0 1
3663 1 1.4770526944888795e+01 1.3060878600781860e+01 1.6398123256188345e+01 0 1 0
520 1 6.8367584624264088e+00 1.5925107820162163e+01 1.6396536970558827e+01 0 0 0
1860 1 1.8869037056753495e+01 1.9620536587401403e+01 1.6266273785033647e+01 0 0 1
870 1 4.4231728200854276e-01 8.8438212893579600e+00 1.3256393417224114e+01 0 0 1
3372 1 5.6691902213415069e-01 1.6387166694105133e+01 8.8638996946049780e+00 1 1 0
2082 1 1.0900928894873662e+01 2.4810107688256604e+01 1.3245463526829893e+01 1 0 0
1496 1 2.1132671068064496e+01 5.1421644437649383e-01 1.4105102915657344e+01 0 1 0
1144 1 2.2398821547379884e+00 2.4365967065365172e+01 1.4657288619040335e+01 0 0 0
104 1 4.9959690360165840e+00 4.8887164795203422e+00 1.6600121975844697e+01 0 0 0
1324 1 3.1503303906310460e+00 1.1482219333863874e+00 1.8247005060484103e+01 0 1 0
3299 1 3.0444420726736465e-01 8.7358831626587321e+00 1.8072969126681325e+01 1 1 0
2860 1 6.0339231350400113e-01 2.4326909110202401e+01 1.6891448975628581e+01 1 0 1
2113 1 1.0634736419726285e+00 1.8162758155941400e+01 2.4922056563629045e+01 1 0 0
2136 1 7.3527197272592382e+00 1.7524054073798248e+00 1.8491290866268709e+01 1 0 0
791 1 1.3984858344392860e+01 2.4892884992319161e+01 1.8462802145130127e+01 0 0 0
1301 1 2.4735460981383319e+01 1.6103161865579999e+01 1.7209184184855591e+01 0 1 0
3004 1 1.0142454616894354e+00 7.0630125341794043e+00 2.4444619694835446e+01 1 1 -1
674 1 8.8408818853311955e-01 1.7482596290775959e+01 1.8454521686800710e+01 1 0 0
822 1 1.0902373922034782e+01 2.0762282658345999e+01 3.1914833173185421e+01 0 0 0
3657 1 2.0900897574739027e+01 8.3179868974117133e-01 1.8033987612033854e+01 1 1 0
555 1 1.4638018052550329e+01 8.4984575957945729e-01 2.3009931046815442e+01 0 0 0
1105 1 9.5982214081927459e+00 5.3588898711612085e+00 1.8504853675767535e+01 0 1 0
587 1 1.2285354466019983e+01 4.0020125151983539e+00 1.8758531540840071e+01 0 0 0
484 1 1.5743045981107832e+01 3.1524414093263275e+00 1.9673387426493242e+01 0 0 0
84 1 2.0266698187985146e+01 5.6186556808798898e+00 1.9189293775377728e+01 0 0 0
2340 1 1.7591964979073360e+01 6.7524179933104991e+00 1.8285564925108844e+01 1 0 0
942 1 2.2308313897538209e+01 7.4057474457527928e+00 1.9124003605172231e+01 0 0 0
398 1 1.5331728174560874e+01 2.7553366892868603e+00 1.7017624594819271e+01 0 0 0
649 1 1.1466564466883581e+01 1.7711227312393198e+00 1.7139488166466954e+01 0 0 0
3035 1 2.8167512195752611e+00 7.0710873250889419e+00 1.9143941779756336e+01 1 1 0
425 1 1.2301386632802894e+01 1.4088060272833626e+01 1.7311440974947313e+01 0 0 0
1575 1 6.9391832934634667e+00 6.5138973291251823e+00 1.7977739771025728e+01 0 1 0
285 1 1.0106246662574277e+01 9.8101856038649977e+00 1.8561700850537651e+01 0 0 0
1502 1 1.1362406801362933e+01 7.3611688182543160e+00 1.8435015741509229e+01 0 1 0
96 1 1.5024212939613090e+01 1.0389978354976446e+01 1.7192282433002045e+01 0 0 0
2460 1 2.3974245978531506e+01 1.0952141811661351e+01 1.7594642370236507e+01 0 0 0
3515 1 1.4175573926230490e+01 2.0772850333845611e+01 1.7127942501437968e+01 0 1 0
3906 1 1.3103324387437434e+00 1.1345187749957834e+01 1.7808866179180551e+01 0 1 1
2880 1 3.7723144073552226e+00 1.0817615795486958e+01 1.9578311523323809e+01 1 0 1
1270 1 8.8285776741112905e+00 2.2286191166406155e+01 2.3224798763459631e+01 0 0 0
461 1 2.0190415664894552e+01 1.1441744301175514e+00 2.6743790076497287e+01 0 0 0