
# Create simulation box and atoms
lattice		    sc 1
Lattice spacing in x,y,z = 1 1 1
region 		    all block 0 50 0 50 0 50 units box
region		    bubble sphere 25.0 25.0 25.0 10.0 side in
create_box 	    1 all
Created orthogonal box = (0 0 0) to (50 50 50)
  2 by 2 by 3 MPI processor grid

create_atoms	1 random 4096 83738 all
Created 4096 atoms
  Time spent = 0.000484705 secs

mass		    1 18.15

# Define potential

pair_style 	    sw
pair_coeff	    * * mW_real.sw mW
Reading potential file mW_real.sw with DATE: 2019-02-27

# Run minimization and output files

minimize 	    1.0e-8 1.0e-8 10000 1000
WARNING: Using 'neigh_modify every 1 delay 0 check yes' setting during minimization (../min.cpp:168)
Neighbor list info ...
  update every 1 steps, delay 0 steps, check yes
  max neighbors/atom: 2000, page size: 100000
  master list distance cutoff = 6.3065
  ghost atom cutoff = 6.3065
  binsize = 3.15325, bins = 16 16 16
  1 neighbor lists, perpetual/occasional/extra = 1 0 0
  (1) pair sw, perpetual
      attributes: full, newton on
      pair build: full/bin/atomonly
      stencil: full/bin/3d
      bin: standard
Per MPI rank memory allocation (min/avg/max) = 4.222 | 4.224 | 4.225 Mbytes
Step Temp E_pair E_mol TotEng Press 
       0            0     52577720            0     52577720     38662219 
     700            0   -46112.632            0   -46112.632   -1101.6364 
Loop time of 1.88672 on 12 procs for 700 steps with 4096 atoms

99.1% CPU use with 12 MPI tasks x no OpenMP threads

Minimization stats:
  Stopping criterion = max force evaluations
  Energy initial, next-to-last, final = 
         52577719.8854     -46112.3112825      -46112.632154
  Force two-norm initial, final = 4.4379e+09 4.17274
  Force max component initial, final = 3.08403e+09 0.717888
  Final line search alpha, max atom move = 0.0982716 0.070548
  Iterations, force evaluations = 700 1001

MPI task timing breakdown:
Section |  min time  |  avg time  |  max time  |%varavg| %total
---------------------------------------------------------------
Pair    | 1.4535     | 1.5761     | 1.74       |   6.8 | 83.54
Neigh   | 0.023876   | 0.024768   | 0.026025   |   0.4 |  1.31
Comm    | 0.085127   | 0.2492     | 0.3716     |  17.1 | 13.21
Output  | 0          | 0          | 0          |   0.0 |  0.00
Modify  | 0          | 0          | 0          |   0.0 |  0.00
Other   |            | 0.03661    |            |       |  1.94

Nlocal:    341.333 ave 362 max 331 min
Histogram: 2 4 1 0 1 2 1 0 0 1
Nghost:    1017.42 ave 1035 max 996 min
Histogram: 2 0 0 2 1 1 2 2 0 2
Neighs:    0 ave 0 max 0 min
Histogram: 12 0 0 0 0 0 0 0 0 0
FullNghs:  11053.3 ave 12055 max 10526 min
Histogram: 2 2 3 1 1 1 1 0 0 1

Total # of neighbors = 132640
Ave neighs/atom = 32.3828
Neighbor list builds = 36
Dangerous builds = 0
delete_atoms	    region bubble
Deleted 140 atoms, new total = 3956
fix 		    5 all indent 10.0 sphere 25.0 25.0 25.0 10.0

# Equilibration of molecular water

# Add velocity/set timestep

velocity	    all create ${TEMP} 120542 rot yes dist gaussian
velocity	    all create 215 120542 rot yes dist gaussian
timestep	    5.0

# Define output

compute			1 all msd
thermo	    	50
thermo_style	custom step temp press vol etotal ke pe c_1[4]

# Neighbor lists

neigh_modify    delay 0 every 1 check yes

# Set fixes

fix             1 all momentum 10 linear 1 1 1 rescale
fix             2 all nve
fix             3 all temp/csvr ${TEMP} ${TEMP} 500.0 928366
fix             3 all temp/csvr 215 ${TEMP} 500.0 928366
fix             3 all temp/csvr 215 215 500.0 928366
fix             4 all press/berendsen iso ${PRES} ${PRES} 1000.0 modulus 20000
fix             4 all press/berendsen iso 1 ${PRES} 1000.0 modulus 20000
fix             4 all press/berendsen iso 1 1 1000.0 modulus 20000

# Run 1 ns equilibration

dump		    1 all atom 2000 ${DIR}/eq.${NAME}-${TEMP}.dump
dump		    1 all atom 2000 1nm/run_1/eq.${NAME}-${TEMP}.dump
dump		    1 all atom 2000 1nm/run_1/eq.1nm_bubble_1-${TEMP}.dump
dump		    1 all atom 2000 1nm/run_1/eq.1nm_bubble_1-215.dump

reset_timestep  0

run	            200000
Per MPI rank memory allocation (min/avg/max) = 4.486 | 4.488 | 4.489 Mbytes
Step Temp Press Volume TotEng KinEng PotEng c_1[4] 
       0          215   -306.28356       125000   -41678.532    2534.6573   -44213.189 4.7371853e-33 
      50    132.51193   -319.38747    124903.17   -41107.276    1562.1969   -42669.473   0.21620869 
     100    149.47463   -154.45185    124592.93   -40695.342    1762.1719   -42457.514   0.36933884 
     150    165.23527   -267.96263    124289.51   -40366.593    1947.9758   -42314.569   0.53839686 
     200     173.4513   -80.481172    124130.51   -40087.792    2044.8354   -42132.627   0.70890624 
     250    186.75376    62.197727    124026.23   -39828.973    2201.6594   -42030.632    0.8995547 
     300    194.20599   -127.94986    123943.54   -39710.506    2289.5146    -42000.02    1.0992805 
     350    199.15576    -25.63559    123889.58   -39568.246     2347.868   -41916.114      1.27704 
     400    201.83593   -48.777968    123813.81   -39475.642    2379.4647   -41855.107    1.4627398 
     450    207.11114   -24.490207    123721.94   -39363.064    2441.6547   -41804.719    1.6478533 
     500    209.26315   -118.76506     123546.7   -39331.201     2467.025   -41798.226    1.8258053 
     550    211.29396   -231.14816    123355.53   -39297.619    2490.9665   -41788.586     2.062186 
     600    216.39394   -21.395568     123218.1   -39271.766    2551.0906   -41822.856    2.2947944 
     650     215.5619   -55.567302    123166.94   -39268.741    2541.2817   -41810.022    2.4523128 
     700    212.30107   -288.73154    122944.16   -39284.703    2502.8393   -41787.543     2.649232 
     750     217.6858     -7.22504    122708.09   -39284.391    2566.3205   -41850.711    2.8257482 
     800    209.75769   -143.62868    122567.58   -39311.136    2472.8551   -41783.992    3.0454692 
     850    213.93929     40.09938    122517.28   -39271.943    2522.1525   -41794.095    3.2194542 
     900    213.43658   -112.58786    122473.43   -39302.545     2516.226   -41818.771    3.3488986 
     950    212.24939   -96.827389    122284.09   -39350.723    2502.2301   -41852.953    3.4383975 
    1000     214.8164   -122.95819    122249.08    -39367.39    2532.4928   -41899.883    3.6153526 
    1050    213.65939     105.6149    122159.62   -39348.919    2518.8527   -41867.771    3.8207617 
    1100    213.52323   -131.33298    122318.62   -39347.903    2517.2476   -41865.151     4.023867 
    1150    214.05867   -116.16528    122059.06   -39347.489    2523.5599   -41871.049    4.1905392 
    1200    213.98486   -174.76856    121991.62   -39287.483    2522.6897   -41810.172    4.3508093 
    1250    214.40815    -101.4653    121945.94   -39315.146    2527.6799   -41842.826    4.5652194 
    1300    211.06349   -41.255994     121749.1   -39356.473    2488.2494   -41844.723    4.7505717 
    1350     216.3009    60.199359       121876   -39303.002    2549.9937   -41852.996    4.8646465 
    1400    214.19405    114.01209    121818.27   -39302.145    2525.1559   -41827.301     4.995573 
    1450    212.08078   -57.998882    121728.69   -39338.788    2500.2424   -41839.031     5.167597 
    1500    213.62992   -25.144826    121586.87   -39361.688    2518.5053   -41880.193    5.3190929 
    1550    212.91064    125.22033    121684.51    -39387.61    2510.0257   -41897.636     5.555907 
    1600    214.54106    57.726456    121710.89   -39369.611    2529.2468   -41898.858    5.7727748 
    1650     214.8153   -72.679551    121760.62   -39386.757    2532.4799   -41919.237    5.9599446 
    1700    207.57983    51.514209    121703.38   -39413.732    2447.1802   -41860.912    6.1461334 
    1750    213.14991   -12.519358    121521.46   -39411.965    2512.8465   -41924.812     6.368991 
    1800    215.10765   -11.766681     121536.9   -39377.733    2535.9264   -41913.659    6.6064581 
    1850    213.20388    18.535389     121606.4   -39361.698    2513.4827   -41875.181    6.8009476 
    1900    212.87765    30.194451     121700.9   -39369.562    2509.6367   -41879.199    7.0485305 
    1950    215.35968    -136.7172    121671.24   -39347.495    2538.8976   -41886.392    7.1899129 
    2000     214.2101    71.661487     121676.4   -39359.963    2525.3451   -41885.308    7.3198172 
    2050    217.51149   -41.910002     121719.9   -39306.893    2564.2655   -41871.159    7.5789573 
    2100    213.87645   -123.92676     121635.7   -39282.898    2521.4117    -41804.31    7.8130353 
    2150    219.00651    84.626097    121547.37   -39290.194    2581.8905   -41872.084    7.9930066 
    2200    218.67894    139.14917    121665.09   -39214.033    2578.0287   -41792.062    8.1648445 
    2250    218.09504   -51.063791    121691.42     -39219.2     2571.145   -41790.345    8.2959695 
    2300    221.52577   -149.42826    121747.87   -39236.484    2611.5902   -41848.074    8.4429508 
    2350      218.412    -9.045361    121653.37   -39218.539    2574.8817    -41793.42    8.6016937 
    2400    219.39705    9.7642017    121522.67   -39232.911    2586.4945   -41819.406    8.8106717 
    2450    221.38626    106.99278    121649.47   -39179.361    2609.9456   -41789.307     8.997687 
    2500    217.40833    177.19627    121812.91   -39179.405    2563.0493   -41742.455    9.2822258 
    2550    219.65533   -86.660433    121978.31   -39245.222    2589.5395   -41834.761    9.5406259 
    2600    216.29071    65.779372    121950.26   -39251.453    2549.8736   -41801.326    9.6698063 
    2650    217.49141    11.405702    121973.25   -39297.867    2564.0288   -41861.896    9.7605075 
    2700    217.24546     36.48235     121847.8   -39323.615    2561.1292   -41884.744    9.9334661 
    2750     216.7368   -105.07933    121886.74   -39293.031    2555.1326   -41848.164    10.118143 
    2800    216.78732    -97.39589    121879.23   -39300.332    2555.7282    -41856.06    10.189316 
    2850    213.93291    67.132742    121839.46   -39297.624    2522.0772   -41819.702    10.291324 
    2900      216.217   -39.265575    121803.36   -39288.238    2549.0046   -41837.243    10.433741 
    2950    212.65064    29.731255    121787.65   -39315.489    2506.9604   -41822.449    10.689029 
    3000    219.21833   -99.706765    121731.34   -39336.637    2584.3877   -41921.025    10.858893 
    3050    214.26234    2.7160109     121768.6   -39316.611    2525.9609   -41842.572    11.092818 
    3100    215.03679    100.85303    121821.42   -39328.634    2535.0911   -41863.725    11.284027 
    3150     218.3337    -69.72518    121779.82   -39350.589    2573.9586   -41924.547    11.386066 
    3200    219.43834    29.457634    121868.85    -39367.33    2586.9813   -41954.312    11.572926 
    3250    215.09008    10.408899    121775.91   -39354.261    2535.7193   -41889.981     11.76213 
    3300     215.1223    48.064694    121854.09   -39325.158    2536.0991   -41861.257    11.794124 
    3350    216.60423    10.838437    121916.56    -39376.95    2553.5698    -41930.52    11.898835 
    3400    218.18319    20.081699    121940.15   -39310.836    2572.1843   -41883.021    12.178804 
    3450    220.76679   -101.24507     121902.4   -39273.468    2602.6426   -41876.111    12.386927 
    3500    217.83353     90.52432    121963.99   -39254.359    2568.0621   -41822.421    12.552969 
    3550     216.6872   -119.95858     122072.6   -39265.325    2554.5479   -41819.873    12.793617 
    3600    217.26248    26.820254    122109.29   -39286.103    2561.3299   -41847.433    13.076904 
    3650    210.18766    38.024784    122145.24    -39305.29    2477.9242   -41783.214    13.288115 
    3700    221.27005   -55.859551    122083.89   -39252.743    2608.5756   -41861.319    13.494494 
    3750    215.66272   0.66984483    122141.23   -39267.449    2542.4701   -41809.919    13.803734 
    3800    215.03982   -96.959671    122032.09   -39265.151    2535.1267   -41800.278    14.030856 
    3850    214.51317   -14.247681    122044.49   -39298.209     2528.918   -41827.127    14.198685 
    3900    216.56976    9.4020481    121934.16   -39285.844    2553.1634   -41839.007    14.283628 
    3950    217.23619   -69.833377    122009.18   -39290.227      2561.02   -41851.247    14.441565 
    4000    219.78638   -107.69577    122001.99   -39322.917    2591.0845   -41914.002    14.617771 
    4050    216.75811   -109.85024    122068.32   -39316.596    2555.3838    -41871.98    14.780068 
    4100    213.67237    38.603544    122076.17   -39322.521    2519.0057   -41841.527    14.943109 
    4150     217.6741   -214.09791    121910.26   -39352.866    2566.1825   -41919.049    15.119748 
    4200    215.53722   -30.630854    121774.03   -39381.217    2540.9907   -41922.207    15.479343 
    4250    212.32022     205.8935    121704.82   -39370.913    2503.0651   -41873.978    15.781131 
    4300    212.93677   -7.6668703    121668.37    -39419.45    2510.3336   -41929.783    15.847793 
    4350    216.75147   -2.6767775    121615.68   -39394.429    2555.3055   -41949.734    16.060751 
    4400    214.69274    229.62588    121752.48    -39378.84    2531.0349   -41909.875    16.192818 
    4450      214.543    174.71513    121880.74   -39369.585    2529.2697   -41898.854    16.322475 
    4500    213.51912   -28.652785    121826.24   -39404.513     2517.199   -41921.712    16.529456 
    4550    213.29595   -122.08794    121806.96   -39437.231    2514.5681   -41951.799    16.645594 
    4600    208.00541    45.121697    121715.64   -39438.675    2452.1973   -41890.872    16.852937 
    4650    218.79506    202.41385     121706.5   -39403.118    2579.3977   -41982.516    17.098827 
    4700    215.31666    91.625192    121866.46   -39350.382    2538.3904   -41888.772    17.366216 
    4750    216.58309    16.437636    121953.24   -39362.081    2553.3205   -41915.402    17.514073 
    4800    215.80979    36.086603    122068.46   -39376.418     2544.204   -41920.622    17.628396 
    4850    217.63089    -73.99731    122076.56   -39353.704    2565.6732   -41919.378    17.814363 
    4900     220.3394   -11.107611    122080.18   -39301.992    2597.6041   -41899.596    17.946666 
    4950     218.7533    31.825317     121918.6   -39318.619    2578.9053   -41897.524     18.09277 
    5000    218.96789     49.78564    121953.59    -39305.27    2581.4351   -41886.706    18.315686 
    5050    216.19124    7.9247593    121979.09   -39373.221    2548.7009   -41921.922    18.491066 
    5100    216.24704   -134.49298     121852.2   -39405.418    2549.3588   -41954.776    18.569365 
    5150    213.96179    44.942004    121863.91   -39389.664    2522.4177   -41912.082    18.819558 
    5200    215.25425    117.96203    121914.74   -39357.558    2537.6547   -41895.213    18.994077 
    5250    215.10722    80.340836    121942.46   -39378.482    2535.9214   -41914.403    19.153195 
    5300    214.35461   -63.478502    121955.55   -39406.279    2527.0487   -41933.327    19.440149 
    5350    214.11703     75.87265    121809.33   -39405.077    2524.2478   -41929.325    19.583279 
    5400    211.11309   -6.3028054    121699.83   -39362.051    2488.8342   -41850.885    19.653202 
    5450     211.3295     87.51398     121677.9   -39356.774    2491.3854   -41848.159    19.833915 
    5500    215.98362     43.58302    121633.38   -39363.449    2546.2533   -41909.702    20.028973 
    5550    215.19861   -14.195212    121587.52   -39340.815    2536.9987   -41877.814    20.182479 
    5600    216.06217   -15.947526    121596.73   -39401.041    2547.1793   -41948.221    20.400137 
    5650    211.57737    63.521223    121658.85   -39433.619    2494.3076   -41927.927     20.55052 
    5700     212.7203      6.04105    121802.56   -39423.831    2507.7817   -41931.612    20.811242 
    5750    212.44827    51.230294    121746.62   -39385.594    2504.5747   -41890.168    20.999567 
    5800    217.03947   -100.92332    121669.39   -39371.111    2558.7008   -41929.812    21.103765 
    5850    216.29604   -23.540827    121684.73   -39305.743    2549.9365   -41855.679    21.181268 
    5900    213.43961     -78.0799     121719.3   -39310.814    2516.2617   -41827.076    21.428356 
    5950    211.91325   -56.462534    121695.02    -39290.87    2498.2673   -41789.137    21.507804 
    6000    211.33405   -44.588445    121655.15   -39281.654    2491.4391   -41773.093    21.762039 
    6050    216.66824   -33.271664     121654.2   -39309.469    2554.3243   -41863.793    21.959514 
    6100    213.91613   -48.855873    121687.59   -39339.133    2521.8794   -41861.013    22.035047 
    6150    217.63147   -20.183769    121727.09   -39319.136      2565.68   -41884.816    22.305548 
    6200    213.74522    27.930577    121810.01    -39312.57    2519.8645   -41832.434    22.571091 
    6250    217.71726    100.28322    121911.85   -39314.753    2566.6913   -41881.444    22.792586 
    6300     218.7395    153.56723    121960.97   -39301.257    2578.7427   -41879.999    22.982829 
    6350    215.98197     50.76622    122068.95   -39309.955    2546.2338   -41856.189    23.196209 
    6400    215.86181   -29.033583    121933.15   -39354.384    2544.8173   -41899.201    23.358075 
    6450    214.05993    167.22516    121903.09   -39323.238    2523.5747   -41846.813    23.668612 
    6500    215.43789    109.98369    121861.21   -39284.974    2539.8196   -41824.794    23.800959 
    6550    218.61423   -31.834466    121916.03   -39287.365    2577.2658   -41864.631    23.989643 
    6600    216.21868   -45.537272     121821.3   -39280.903    2549.0245   -41829.928    24.147329 
    6650    218.63101    47.410086     121994.2   -39304.656    2577.4637    -41882.12    24.341829 
    6700    218.08514    -156.9195     121784.2   -39331.107    2571.0283   -41902.135    24.532371 
    6750    216.54056   -139.16694    121700.24   -39337.393    2552.8191   -41890.212    24.689757 
    6800     216.4907   -48.959559    121568.27   -39350.778    2552.2313   -41903.009    24.899857 
    6850    214.04631    87.037548    121589.61   -39376.556    2523.4141   -41899.971    25.068903 
    6900    211.53665   -25.449007     121669.4   -39408.097    2493.8275   -41901.924    25.178317 
    6950    210.74626    94.509068    121742.03   -39421.095    2484.5096   -41905.604    25.372139 
    7000    216.15005    73.703963    121683.68   -39347.224    2548.2153   -41895.439    25.608491 
    7050    215.09346     204.2868    121823.75   -39321.852    2535.7591   -41857.611    25.766673 
    7100    213.98131    34.769029    121856.88   -39336.887    2522.6479   -41859.535    26.029682 
    7150    214.76098   -146.78227    121929.03   -39355.427    2531.8394   -41887.267    26.159696 
    7200    215.59372   -94.844703    121704.96    -39383.12    2541.6567   -41924.777    26.307023 
    7250    213.30318    92.703345    121576.91   -39431.641    2514.6534   -41946.294    26.286616 
    7300    214.25974   -140.24424    121511.86   -39449.261    2525.9303   -41975.192    26.267476 
    7350    215.54697    35.069094    121576.31   -39468.473    2541.1056   -42009.579    26.430036 
    7400     218.3232    67.580873     121726.4   -39461.461    2573.8348   -42035.296    26.645539 
    7450    213.53351    -117.5222    121638.15   -39475.279    2517.3687   -41992.648    26.745764 
    7500    217.21248    105.50054    121639.93   -39435.641    2560.7404   -41996.382    26.986388 
    7550    218.91334    42.199865     121754.2   -39373.801    2580.7921   -41954.593       27.144 
    7600    216.83233   -23.448595     121716.5   -39403.704    2556.2588   -41959.963    27.345954 
    7650    213.63764    39.622624    121712.51   -39459.485    2518.5963   -41978.081    27.732091 
    7700    215.03791    95.999103    121737.05   -39409.302    2535.1042   -41944.406    27.908308 
    7750    216.67016    58.998864    121819.69   -39417.384     2554.347   -41971.731    28.218712 
    7800    216.64802    77.431525    121899.94   -39391.648     2554.086   -41945.734    28.351554 
    7850    216.18904     68.49397    121806.42   -39412.043     2548.675   -41960.718    28.552916 
    7900    220.96783   -93.362469    121723.04   -39376.524    2605.0127   -41981.536    28.729842 
    7950    211.06028    24.998484    121641.79   -39413.312    2488.2116   -41901.523    28.912196 
    8000    214.67958   -264.98056    121528.07   -39414.991    2530.8799   -41945.871    29.013953 
    8050    211.73553    -21.41591    121367.21   -39437.804    2496.1721   -41933.976    29.031011 
    8100    209.56648    211.08538    121360.69   -39492.453     2470.601   -41963.054    29.179415 
    8150    213.57042    121.78356    121477.34   -39474.281    2517.8038   -41992.085    29.350486 
    8200    209.93186    14.478591    121562.65   -39496.885    2474.9085   -41971.794    29.460091 
    8250    209.37373   -108.02741    121450.04   -39521.376    2468.3286   -41989.705    29.582335 
    8300    209.28073    274.70233    121503.82   -39510.985    2467.2322   -41978.217    29.744745 
    8350    213.40505   -58.883372    121611.11   -39526.749    2515.8543   -42042.603    29.861327 
    8400    212.64033   -105.84095    121490.36   -39490.236    2506.8389   -41997.075    30.082182 
    8450    215.13205    132.49145    121701.06   -39501.988    2536.2141   -42038.203    30.464638 
    8500    213.50527    -22.08029     121931.7   -39497.995    2517.0358   -42015.031    30.648481 
    8550    213.23725   -72.874084    121910.47   -39508.772     2513.876   -42022.648    30.802187 
    8600    211.10497    44.799445    122001.12   -39562.935    2488.7384   -42051.674    30.972112 
    8650     212.4796   -78.234123    121925.47   -39555.685     2504.944   -42060.629    31.130638 
    8700    211.88406   -22.405302    121888.55   -39548.423    2497.9232   -42046.346    31.421995 
    8750    216.23871   -50.943175    121853.17   -39547.512    2549.2606   -42096.773    31.577157 
    8800    212.10563    19.340572    121803.23   -39565.231    2500.5353   -42065.766    31.615984 
    8850    211.45497    67.713319    121866.39   -39582.068    2492.8646   -42074.933     31.65857 
    8900    213.73423    70.723133    122002.87   -39537.561     2519.735   -42057.296    31.618801 
    8950     210.0822    -46.16469    122025.83   -39558.564    2476.6809   -42035.245    31.781281 
    9000    217.46939    8.9158049    122094.63   -39508.603    2563.7692   -42072.373    31.798643 
    9050    216.65033    62.475954    122067.94   -39484.575    2554.1132   -42038.689    31.967961 
    9100    219.59786   -57.509756    122096.01    -39520.48    2588.8619   -42109.342    32.096587 
    9150    215.23281   -156.13503    122110.48    -39535.94    2537.4019   -42073.342    32.264549 
    9200    216.18198   -144.27473    122066.04   -39514.006    2548.5918   -42062.597    32.352102 
    9250    214.99201   -114.81949    122031.44    -39523.15    2534.5631   -42057.714    32.400453 
    9300    217.13959    49.042628    121993.58   -39512.691    2559.8812   -42072.572    32.513162 
    9350    214.64463   -141.21018    121965.29   -39512.953    2530.4678   -42043.421    32.667194 
    9400    212.14108    23.197907    121966.99    -39497.02    2500.9532   -41997.973    32.667795 
    9450    213.37363   -36.905511     121910.2   -39487.555    2515.4838   -42003.038    32.714684 
    9500    214.97418    99.911481    121903.92     -39432.8     2534.353   -41967.153    32.930684 
    9550    214.95965   -27.598329    121959.63   -39459.628    2534.1816    -41993.81    33.148309 
    9600    214.73288    13.973392    121893.27   -39485.359    2531.5083   -42016.867    33.293916 
    9650    220.70266    50.524174    121952.97   -39484.777    2601.8866   -42086.664    33.292364 
    9700    215.61935    112.29809    121868.77   -39503.522    2541.9589   -42045.481    33.464944 
    9750    218.03408   -205.60594    121927.16   -39482.329    2570.4264   -42052.756    33.558931 
    9800    218.98149   -38.020102    121812.26   -39485.532    2581.5955   -42067.128    33.663815 
    9850    217.04197   -48.631635    121883.95     -39456.2    2558.7303   -42014.931       33.957 
    9900    214.20862   -112.50427    121832.31   -39491.531    2525.3277   -42016.858    33.995258 
    9950    214.42403    51.810357    121853.06   -39478.452    2527.8671    -42006.32    34.271576 
   10000    212.97767    16.371145    121975.64   -39484.567    2510.8159   -41995.382    34.550647 
   10050    215.30444   -49.635022    121950.03   -39481.672    2538.2464   -42019.918    34.668547 
   10100    217.08619    23.368453    121930.85   -39499.173    2559.2516   -42058.425    34.814715 
   10150    215.33324    30.884996    121982.95    -39508.22    2538.5859   -42046.806    34.853607 
   10200    211.62991    37.231293     121996.1     -39501.8     2494.927   -41996.727    35.033219 
   10250    208.42858   -47.365473    121945.92   -39528.051    2457.1861   -41985.237    35.149778 
   10300    214.48893     26.01695    121880.45   -39528.541    2528.6323   -42057.174    35.283337 
   10350    213.38337   -112.69585    121876.82    -39576.73    2515.5987   -42092.329    35.377435 
   10400    210.86124   -81.021562    121812.77   -39536.237    2485.8651   -42022.102    35.538319 
   10450    213.30043    44.375492    121691.83   -39543.946    2514.6209   -42058.567    35.581432 
   10500    212.20846   -80.925467    121662.19   -39529.931    2501.7476   -42031.678    35.673139 
   10550    210.63672    23.836615    121682.66   -39513.161    2483.2181   -41996.379    35.790192 
   10600    215.21346   -9.6424117    121880.09   -39505.352    2537.1738   -42042.526    36.022528 
   10650    214.58658    36.425519    121850.79   -39485.409    2529.7834   -42015.193    36.307786 
   10700    212.78504   -122.63579    121754.01   -39474.233    2508.5449   -41982.778    36.377106 
   10750     216.6634    139.36714    121776.07   -39485.152    2554.2673   -42039.419    36.492792 
   10800    215.90221    72.487899    121831.28   -39541.256    2545.2935   -42086.549    36.607181 
   10850    214.74267    44.947704    121880.52   -39569.735    2531.6236   -42101.358    36.744398 
   10900     214.8138   -75.112823    121829.16   -39572.049    2532.4622   -42104.511    36.886866 
   10950    214.37354    83.869057    121854.32   -39538.617    2527.2719   -42065.889    37.098507 
   11000     214.3677   -113.22249    121912.75   -39531.361    2527.2031   -42058.564    37.145752 
   11050     213.1886    11.480357    121911.47   -39552.076    2513.3025   -42065.379    37.173266 
   11100    211.81174   -78.041725    121850.85   -39550.649    2497.0706    -42047.72    37.275188 
   11150     212.8285   -24.810058    121832.08   -39556.035    2509.0572   -42065.093    37.202096 
   11200    214.21492   -242.49497    121824.39   -39555.419    2525.4019   -42080.821    37.273749 
   11250    215.57179    -112.1421    121658.02   -39532.865    2541.3982   -42074.264     37.37737 
   11300    210.91165   -33.625265    121614.62   -39562.148    2486.4593   -42048.607    37.499466 
   11350    209.91409   -39.354565    121616.04   -39562.216     2474.699   -42036.915    37.631497 
   11400    214.20659   -167.93195     121548.7   -39528.577    2525.3037    -42053.88    37.706581 
   11450    212.01567    35.004491    121517.47   -39565.045    2499.4747   -42064.519    37.960446 
   11500    211.50045    61.704958    121576.45   -39581.503    2493.4008   -42074.904    38.085249 
   11550    209.63175    -42.20398    121492.31   -39560.272    2471.3705   -42031.643    38.215567 
   11600    210.35832   -37.284735    121473.46   -39552.147    2479.9361   -42032.083    38.369246 
   11650     212.7573   -225.81296    121282.19   -39560.664    2508.2179   -42068.882     38.61984 
   11700    215.78251   -8.8170846    121234.42   -39522.306    2543.8824   -42066.188    38.840918 
   11750    209.81877    95.590866    121228.78   -39520.002    2473.5752   -41993.577    39.144144 
   11800    212.40213    62.790275    121334.95   -39531.252    2504.0307   -42035.282    39.390154 
   11850    213.14318   -37.760398     121342.4   -39496.993    2512.7671    -42009.76    39.599036 
   11900    213.08228    89.921939    121472.64   -39510.765    2512.0491   -42022.814    39.646918 
   11950    216.12134    -29.02329    121463.07   -39560.439    2547.8769   -42108.316    39.848197 
   12000    214.30069   -78.263426    121540.09   -39526.838     2526.413   -42053.251    40.117077 
   12050    215.84749   -31.801788    121573.84   -39548.188    2544.6484   -42092.836    40.206014 
   12100    213.64524   -39.499822    121592.07   -39572.295    2518.6859   -42090.981    40.307385 
   12150    211.85777    197.00676    121571.33   -39611.671    2497.6132   -42109.284    40.322609 
   12200    216.17764   -143.60614    121710.17   -39604.199    2548.5407    -42152.74    40.417098 
   12250    213.92479    64.066988    121741.86   -39581.055    2521.9815   -42103.037    40.662898 
   12300    214.85651    35.696145    121737.21    -39574.97    2532.9657   -42107.936    40.686486 
   12350    211.77873    143.13399    121758.25   -39577.812    2496.6814   -42074.494    40.871454 
   12400    212.86437   -59.910836    121822.98   -39536.236    2509.4801   -42045.716     41.03919 
   12450     214.9318   -156.19687    121765.49   -39570.491    2533.8532   -42104.345    40.995646 
   12500     212.6809   -93.845077    121726.49   -39543.665    2507.3171   -42050.982    41.072608 
   12550    215.29572   -62.772643    121603.43   -39550.378    2538.1436   -42088.522     41.22047 
   12600    214.15228   -15.686279    121657.15   -39534.472    2524.6635   -42059.135    41.460981 
   12650    212.76736    142.46637    121795.16   -39540.702    2508.3365   -42049.038    41.669264 
   12700    213.46901    9.5266717    121764.14   -39543.802    2516.6083   -42060.411    41.786412 
   12750    214.57138   -69.096758    121772.36   -39520.867    2529.6043   -42050.471    41.990883 
   12800    219.29392    64.237223    121822.12   -39560.993    2585.2788   -42146.272    42.082232 
   12850    210.00787   -128.97932    121770.31   -39623.072    2475.8046   -42098.876    42.190221 
   12900    216.81399    113.97254    121760.68   -39562.002    2556.0427   -42118.045    42.269067 
   12950    214.62233    129.52301    121833.73   -39511.562     2530.205   -42041.767    42.175604 
   13000    213.94245    15.021727    121919.67   -39522.704    2522.1898   -42044.894    42.273107 
   13050    215.88038    44.707232    121892.77   -39544.162    2545.0362   -42089.198    42.452344 
   13100    215.42567   -140.43415    121859.25   -39558.667    2539.6756   -42098.342    42.755696 
   13150    217.40607    89.827387    121911.37   -39531.036    2563.0228   -42094.059    43.045014 
   13200    216.60386   -29.237086    121926.78   -39549.919    2553.5653   -42103.484    43.189214 
   13250    212.36299   -267.74383    121985.41   -39570.824    2503.5693   -42074.393    43.166146 
   13300    212.22227    -84.59018    121921.63   -39549.946    2501.9103   -42051.857    43.345639 
   13350    220.12317   -185.15575    121896.66   -39565.868    2595.0548   -42160.923    43.462192 
   13400    217.57871    98.176105    121897.56   -39559.324     2565.058   -42124.382     43.57924 
   13450     213.1804    67.817237     122044.3   -39545.397    2513.2059   -42058.603    43.773373 
   13500    213.96889    46.432115    122021.28   -39569.318    2522.5014    -42091.82    43.834355 
   13550    215.95212    26.573977       121925   -39546.378    2545.8819    -42092.26    43.963162 
   13600    210.60948   -73.643445    121817.07   -39585.644     2482.897   -42068.541    44.165152 
   13650     214.2887    83.825937    121895.46   -39540.104    2526.2717   -42066.375    44.288761 
   13700    213.47242    13.131465    121901.08   -39474.673    2516.6485   -41991.321    44.404245 
   13750    215.79172    210.33523    121897.03   -39476.103     2543.991   -42020.094    44.660735 
   13800    215.89525     20.20052     122071.4   -39506.608    2545.2115    -42051.82    44.906717 
   13850    214.44276    39.641928    122030.09   -39525.565     2528.088   -42053.653    45.192675 
   13900    219.60993   -63.492786    121897.56   -39531.917    2589.0043   -42120.921     45.13899 
   13950    213.84627   -2.8781958    121874.65   -39569.928    2521.0559   -42090.984    45.354346 
   14000    214.86971    45.417235    121832.57   -39488.367    2533.1213   -42021.488    45.406532 
   14050    215.93124    6.1572257    121930.01   -39565.501    2545.6358   -42111.137    45.637444 
   14100    217.04059    95.819945    121990.85   -39541.722     2558.714   -42100.436    45.850423 
   14150    214.48291    52.455089    122027.71   -39491.475    2528.5613   -42020.036    45.847079 
   14200    215.07779   -44.087751    122078.51   -39526.422    2535.5744   -42061.997    45.765438 
   14250    213.65758   -17.463414    121953.57   -39551.903    2518.8314   -42070.734    45.803528 
   14300    210.55311   -141.73743    121937.19    -39524.53    2482.2324   -42006.763    45.993787 
   14350    214.26254   -181.88831    121862.99   -39547.566    2525.9633    -42073.53    45.894282 
   14400    214.97752   -209.41269    121811.58   -39551.953    2534.3922   -42086.345    46.054969 
   14450    214.22731    32.235751    121695.14   -39543.756     2525.548   -42069.304    46.256924 
   14500    212.50227   -78.598994    121784.22   -39471.284    2505.2113   -41976.495    46.417761 
   14550    215.94381    123.88792    121765.83    -39492.26     2545.784   -42038.044    46.612902 
   14600    219.08344    -5.294953    121793.71   -39433.426    2582.7974   -42016.223    46.532151 
   14650    213.87323    -25.71521    121709.21   -39487.952    2521.3737   -42009.326    46.721555 
   14700    217.04464    47.242589    121752.02   -39493.016    2558.7618   -42051.778    46.796122 
   14750    214.98446    19.265909    121757.24    -39436.73    2534.4741   -41971.204    46.777868 
   14800    218.94151   -139.78251    121714.67   -39452.425    2581.1241   -42033.549    46.886096 
   14850    211.35905    21.523053    121704.01   -39466.357    2491.7338   -41958.091    47.005235 
   14900    214.46845   -40.800361    121648.89   -39417.101    2528.3908   -41945.492    47.284372 
   14950    218.63098    43.137789    121684.86   -39428.911    2577.4633   -42006.374    47.550136 
   15000    214.46721   -15.537075    121718.75   -39468.083    2528.3762   -41996.459    47.714821 
   15050    213.41315    43.736825     121745.4    -39490.74    2515.9498   -42006.689    47.874175 
   15100    216.51389   -1.4093817    121741.03   -39498.055    2552.5047    -42050.56     48.01788 
   15150    211.40503    79.447629    121818.66   -39463.597    2492.2758   -41955.873    48.208824 
   15200    211.47634   -43.263463    121769.32   -39474.258    2493.1165   -41967.375    48.517187 
   15250    211.94029    112.57609    121812.14   -39457.032    2498.5861   -41955.618    48.830606 
   15300     213.8764   -33.446293    121804.82   -39476.522     2521.411   -41997.933    49.066176 
   15350    210.93596   -42.197441    121630.23   -39460.454    2486.7459     -41947.2    49.077736 
   15400     213.8924   -38.009265    121662.18   -39456.326    2521.5997   -41977.925     49.06988 
   15450    213.41017    77.489121     121641.2   -39479.899    2515.9147   -41995.814    49.340122 
   15500     214.7217    22.199918    121761.92   -39479.373    2531.3765   -42010.749    49.548656 
   15550    213.39136   -33.549305     121745.2    -39432.34    2515.6929   -41948.033    49.578955 
   15600    214.13922   -43.754619    121634.29   -39473.392    2524.5095   -41997.902     49.84724 
   15650     215.5579    112.19743    121600.99   -39426.046    2541.2344   -41967.281    50.246787 
   15700    213.77994   -2.0339838    121631.27   -39461.107    2520.2739   -41981.381    50.371999 
   15750    216.48155   -32.864365    121622.44     -39470.5    2552.1234   -42022.623     50.47278 
   15800    216.45269    98.651403    121680.65   -39477.191    2551.7832   -42028.974    50.755669 
   15850    216.30877   -78.251536    121714.56   -39448.418    2550.0866   -41998.504    50.738728 
   15900    214.37496   -193.86938    121726.29   -39440.377    2527.2886   -41967.666    50.728187 
   15950    214.50162    78.912547    121663.81   -39478.386    2528.7818   -42007.168    50.653895 
   16000    214.32763    28.978216    121663.72   -39477.622    2526.7306   -42004.352    50.634161 
   16050    212.11911    132.77401    121560.42   -39465.209    2500.6941   -41965.903    50.911018 
   16100    216.74805    3.3315258     121809.2   -39512.079    2555.2653   -42067.344    51.057679 
   16150     214.3963    50.617769    121741.95   -39497.232    2527.5402   -42024.772    51.208104 
   16200    213.52651   -109.90508    121693.88   -39491.803    2517.2862   -42009.089    51.365283 
   16250    215.98965   -114.30463    121571.61   -39492.615    2546.3244    -42038.94    51.326261 
   16300    218.19217    47.998082    121659.52   -39499.674    2572.2901   -42071.964    51.509178 
   16350    218.74422   -78.286937    121598.86   -39443.925    2578.7983   -42022.724    51.568946 
   16400    215.08946   -188.42578    121586.28   -39445.789    2535.7119   -41981.501    51.595304 
   16450    215.39423   -32.053706    121489.24   -39442.163    2539.3049   -41981.468    51.891301 
   16500    214.43033    128.03744    121559.54   -39472.205    2527.9414   -42000.147    52.198015 
   16550     221.1539   -34.450724    121687.44   -39400.919    2607.2063   -42008.125    52.454433 
   16600    215.64768   -5.5881864     121652.7    -39407.86    2542.2929   -41950.153    52.487888 
   16650    217.18126    71.588497    121677.23   -39408.797    2560.3724    -41969.17    52.574305 
   16700    216.79636    217.87163    121788.34   -39417.363    2555.8348   -41973.197    52.664793 
   16750    214.65152    15.523762    121867.71    -39406.94    2530.5491   -41937.489    52.792819 
   16800    217.87393    63.092678    121929.33   -39371.078    2568.5384   -41939.617    52.773814 
   16850    213.72244    120.94322    121959.82    -39370.41     2519.596   -41890.006    52.953027 
   16900    217.86123     76.52061    121922.82   -39359.436    2568.3887   -41927.825     53.16431 
   16950    217.94776   -142.34675    121864.99   -39397.957    2569.4088   -41967.366    53.530855 
   17000     218.3064    7.9357212    121825.52   -39403.793    2573.6368   -41977.429    53.828094 
   17050    216.00309     -208.902    121720.65   -39467.922    2546.4828   -42014.405    53.896936 
   17100    209.39101    67.443299    121755.26   -39513.918    2468.5323   -41982.451    54.004499 
   17150    209.87297   -62.155561    121774.19   -39532.483    2474.2142   -42006.697    54.153357 
   17200    212.56096    53.250195    121767.12   -39531.265    2505.9032   -42037.168    54.292156 
   17250    212.65372    76.251041    121782.54   -39522.906    2506.9968   -42029.903    54.353116 
   17300    214.41087    42.297338    121894.99   -39507.055     2527.712   -42034.767    54.517724 
   17350    217.26157    84.100473    121971.97   -39494.847    2561.3192   -42056.167     54.66303 
   17400    215.87429   -20.724915     122079.2   -39459.575    2544.9644   -42004.539    54.828829 
   17450    218.95921    -126.3587    121997.73   -39405.571    2581.3328   -41986.903    54.618739 
   17500    216.41362    64.085301    122038.25   -39378.102    2551.3226   -41929.425    54.664471 
   17550    219.66726   -36.279164     121992.4   -39402.653    2589.6801   -41992.333     54.81583 
   17600    217.85478    89.076188    122039.76   -39399.776    2568.3126   -41968.088    55.041593 
   17650    218.63391   -15.174949    122042.52   -39392.989    2577.4979   -41970.487    55.307673 
   17700    216.20818   -9.5951887     122071.4   -39429.343    2548.9007   -41978.243    55.355791 
   17750     218.5009    146.58305    122232.85   -39413.563    2575.9298   -41989.493    55.407376 
   17800    216.18202    54.152283    122271.16   -39422.849    2548.5922   -41971.441    55.567743 
   17850    216.60036    -92.29759     122145.8   -39424.485    2553.5242   -41978.009    55.594213 
   17900    213.17503    72.518239    122023.33   -39448.524    2513.1425   -41961.667    55.701599 
   17950    214.07314   -26.307847    122154.39   -39481.214    2523.7304   -42004.944    55.900469 
   18000    216.28206    80.117167    122239.71   -39434.275    2549.7716   -41984.047    56.161703 
   18050    215.70333   -20.544509    122321.03   -39508.711     2542.949    -42051.66    56.507112 
   18100    214.02354   -239.22028    122243.72   -39524.214    2523.1457    -42047.36    56.465373 
   18150     215.4944    125.57166    122154.86   -39480.792    2540.4858   -42021.278    56.418848 
   18200      215.776   -112.46123    122105.17   -39469.065    2543.8056   -42012.871    56.616116 
   18250    216.71472   -62.162409    121968.26   -39519.986    2554.8724   -42074.859    56.647016 
   18300    212.92786    183.96707    121928.16    -39497.16    2510.2287   -42007.388    56.721091 
   18350    213.19434   -71.081086    121811.12   -39479.171    2513.3702   -41992.541    56.808525 
   18400    213.63916    74.845982    121854.27   -39450.037    2518.6142   -41968.651    56.747331 
   18450    215.63901   -44.416688    121862.86   -39404.746    2542.1906   -41946.936    56.773965 
   18500    213.22665    60.769229     121965.3   -39424.416    2513.7511   -41938.167    56.861939 
   18550    212.00116    28.310246    121943.62   -39446.609    2499.3037   -41945.912    57.010101 
   18600    215.15324    10.372778    121773.49   -39436.785    2536.4639   -41973.248    57.150574 
   18650    214.98446    77.422725    121887.84   -39466.831    2534.4741   -42001.305     57.53987 
   18700    213.62984   -63.274663    121915.34    -39442.41    2518.5044   -41960.914    57.593072 
   18750    213.99056     164.1169    121887.46   -39469.316     2522.757   -41992.073    57.684002 
   18800     210.2739    9.8230615    121925.91   -39495.278    2478.9408   -41974.219    57.821243 
   18850    213.36588    110.89299    122010.11   -39505.011    2515.3925   -42020.403    57.849525 
   18900    213.76266   -92.464265    121989.09   -39487.544    2520.0702   -42007.614    58.083614 
   18950    213.23901   -105.84417    121930.53   -39494.931    2513.8968   -42008.828    58.389745 
   19000    214.69443   -142.64435    121943.72   -39474.657     2531.055   -42005.712    58.527544 
   19050    212.30646   -46.242656    121866.96   -39423.651    2502.9029   -41926.554    58.559927 
   19100    214.98999   -35.613824    121819.38   -39387.426    2534.5393   -41921.965    58.918098 
   19150      218.495    24.696055     121815.9    -39416.51    2575.8603    -41992.37    59.332807 
   19200    215.09421   -86.808501    121774.07   -39397.074     2535.768   -41932.842    59.494848 
   19250    215.46968   -13.914697    121817.33   -39378.319    2540.1944   -41918.514    59.680606 
   19300    213.18182   -30.810214    121900.63   -39473.322    2513.2226   -41986.544    59.931306 
   19350    213.40639    41.117179    121928.36   -39457.363    2515.8701   -41973.233     60.12345 
   19400    216.43567    38.194743     121930.4   -39456.461    2551.5826   -42008.044    60.090593 
   19450    217.67201      93.8443    121946.77   -39435.951    2566.1579   -42002.109    60.145341 
   19500    217.41407   -113.49895    121923.46    -39485.95     2563.117   -42049.067    60.208694 
   19550    212.96149    -64.04283    121760.55   -39504.945    2510.6251    -42015.57    60.177319 
   19600    214.11623   -78.443567    121829.82   -39537.962    2524.2384     -42062.2    60.181246 
   19650    214.33266    -193.1896    121775.21   -39515.649      2526.79   -42042.439    60.435746 
   19700    217.23954    165.59666    121752.42   -39528.389    2561.0594   -42089.449    60.681106 
   19750      214.954    70.284897    121726.88   -39461.192     2534.115   -41995.307    60.832441 
   19800    212.43345    59.584501    121778.59   -39451.562       2504.4   -41955.962    60.821718 
   19850    214.46924   -118.38241    121756.35   -39453.461    2528.4001   -41981.861    60.744432 
   19900    217.59176   -113.25096     121714.8   -39463.976    2565.2118   -42029.188    60.800739 
   19950    211.38448   -34.335281    121572.49   -39504.292    2492.0336   -41996.326    60.993597 
   20000    210.12759    26.051087    121461.38   -39528.551     2477.216   -42005.767    61.333909 
   20050    213.20867     24.64352    121419.12   -39512.227    2513.5391   -42025.767    61.541861 
   20100    215.37588   -15.194149    121492.57   -39457.758    2539.0886   -41996.847    61.653885 
   20150    214.31075    22.498232    121445.52   -39478.912    2526.5317   -42005.443    61.819378 
   20200     212.9966    12.623268    121388.36   -39498.851     2511.039    -42009.89    61.835637 
   20250    213.46623   -24.007168    121562.04   -39437.283    2516.5755   -41953.858    62.057827 
   20300    215.60568     102.3726    121523.03   -39400.226    2541.7977   -41942.024    62.331099 
   20350     218.5331    78.067809    121572.67   -39422.057    2576.3094   -41998.366    62.543908 
   20400    220.48335   -13.804213    121618.41   -39403.595     2599.301   -42002.896    62.891116 
   20450    214.19902    43.226695    121684.49   -39382.618    2525.2145   -41907.833    63.159167 
   20500    219.57597    14.210051    121751.07   -39390.997    2588.6039     -41979.6    63.061116 
   20550    214.36146    99.373499    121695.36   -39390.847    2527.1295   -41917.977    63.312319 
   20600    215.05118      152.676    121669.74   -39431.433    2535.2607   -41966.694    63.456681 
   20650    212.01054   -6.9195516    121778.36   -39475.242    2499.4142   -41974.657    63.700117 
   20700    211.12911    12.472362    121738.11   -39482.554     2489.023   -41971.577    63.909843 
   20750    215.00811   -65.925702    121842.92   -39423.288    2534.7529   -41958.041    63.989608 
   20800    214.01052   -32.909612     121795.3   -39418.493    2522.9923   -41941.485    64.097728 
   20850    216.05774   -20.867629    121810.02   -39378.713    2547.1271    -41925.84    64.077388 
   20900    214.06298    85.251283    121907.75   -39362.157    2523.6107   -41885.768    64.358703 
   20950    210.39093    133.81103    121899.46   -39371.727    2480.3205   -41852.047    64.706453 
   21000     214.5286   -72.885835    121852.05    -39431.46    2529.0999    -41960.56    64.821473 
   21050    212.73164   -19.731375    121858.32     -39429.5    2507.9154   -41937.416    65.027172 
   21100     210.2081   -97.707663     121843.4   -39435.463    2478.1651   -41913.628    65.052254 
   21150     216.8013   -193.07224    121708.19   -39394.631     2555.893   -41950.524    65.084359 
   21200    213.37122    57.847024    121566.83   -39452.262    2515.4554   -41967.717    65.283735 
   21250    215.94487   -87.726878    121556.25   -39418.024    2545.7965    -41963.82    65.466456 
   21300    212.59093    267.04548    121609.69   -39410.824    2506.2565    -41917.08    65.628329 
   21350     213.8586    136.98549     121882.8   -39378.902    2521.2012   -41900.103    65.996163 
   21400    219.67599    4.1714807    121918.86   -39385.356    2589.7831   -41975.139     66.16712 
   21450    217.85447     -225.544    121722.04   -39393.836     2568.309   -41962.145    66.262817 
   21500    217.07208   -19.187954    121619.53   -39451.546    2559.0853   -42010.631    66.287899 
   21550    216.76086    87.992908    121730.28   -39473.224    2555.4163   -42028.641    66.357171 
   21600    209.66206   -53.302947    121765.36   -39477.993    2471.7278   -41949.721    66.406204 
   21650    216.66408   -14.306072    121713.34   -39453.408    2554.2753   -42007.683    66.277212 
   21700    219.49399    14.997806    121730.57   -39471.486    2587.6374   -42059.123    66.408607 
   21750    214.84819   -51.341526    121702.93    -39472.16    2532.8676   -42005.027     66.58718 
   21800    212.97148   -15.659209    121689.91    -39492.51    2510.7429   -42003.253    66.899694 
   21850    213.97693    109.02344    121789.36   -39489.391    2522.5962   -42011.987    67.232441 
   21900    212.52148    84.340023    121831.09   -39468.197    2505.4378   -41973.635    67.561095 
   21950    214.04758    140.03456    121816.87   -39486.465    2523.4291   -42009.894    67.806274 
   22000    216.48545    23.044025    121897.33   -39456.919    2552.1695   -42009.089    68.055339 
   22050    214.78624   -40.351071    121997.88   -39449.558    2532.1373   -41981.695    68.434692 
   22100    214.43003   -14.386078    121941.79   -39434.812    2527.9378    -41962.75    68.677988 
   22150    219.57824   -72.527476    122048.98   -39447.106    2588.6306   -42035.737    68.878698 
   22200    216.23188   -58.057468    122031.88    -39449.22    2549.1801     -41998.4    68.993926 
   22250     212.9182    47.943958    121959.33   -39458.253    2510.1147   -41968.368    69.049645 
   22300    212.64659   -9.3246153    121891.14   -39482.245    2506.9127   -41989.158    69.094956 
   22350    213.10304    -125.4124    121934.82    -39506.45    2512.2939   -42018.744      69.0671 
   22400    216.14062    64.647742    121863.04   -39449.524    2548.1042   -41997.628     69.19189 
   22450    209.13162   -47.837861    121931.05   -39499.485    2465.4744   -41964.959    69.315056 
   22500    218.52382   -116.13613    121824.42   -39460.573       2576.2   -42036.773     69.38889 
   22550    216.88695    122.64996    121822.79   -39467.247    2556.9028    -42024.15    69.352815 
   22600    216.68371   -56.968944    121807.95   -39425.117    2554.5067   -41979.623    69.445069 
   22650    215.66067    119.22044    121762.97   -39406.746     2542.446   -41949.192    69.570923 
   22700    220.50871   -47.749652     121827.3   -39393.001       2599.6   -41992.601    69.661666 
   22750    217.34221      194.548    121919.85   -39423.189    2562.2698   -41985.458    69.756864 
   22800    216.80103    34.466563    121953.18   -39430.698    2555.8898   -41986.588    69.853395 
   22850    217.29239   -23.762183     121751.7   -39430.554    2561.6825   -41992.236    70.011464 
   22900    222.29278    5.3476798    121772.62   -39395.562    2620.6327   -42016.195    70.160575 
   22950    217.51945    57.405947    121806.42   -39382.782    2564.3593   -41947.142     70.39974 
   23000    216.79593    74.879959    121801.78   -39449.715    2555.8297   -42005.545    70.658956 
   23050    213.82263    57.746974    121841.57   -39416.696    2520.7771   -41937.473    70.939147 
   23100    218.61247    -27.34137    121869.18   -39389.832    2577.2451   -41967.077    71.042986 
   23150    212.87515   -23.122701     121685.3   -39411.052    2509.6073   -41920.659     70.87584 
   23200    213.79335   -70.395485    121637.87   -39416.145    2520.4319   -41936.577    71.050134 
   23250    222.89064    99.786128    121679.97   -39428.294    2627.6809   -42055.975    71.249442 
   23300    219.24872   -141.50861    121641.61   -39387.167    2584.7459   -41971.913    71.365772 
   23350    216.55418   -104.65619    121642.76   -39396.077    2552.9798   -41949.057    71.330827 
   23400    222.00262    66.443007    121617.78   -39397.492    2617.2119   -42014.704    71.409695 
   23450    215.34259    86.756513    121685.98   -39434.415    2538.6961   -41973.111    71.611871 
   23500    214.02253    -134.7647     121645.5   -39436.568    2523.1338   -41959.702    71.595306 
   23550    214.89157    187.59441    121618.08   -39433.541     2533.379    -41966.92    71.530802 
   23600    217.48423   -41.056524    121739.88   -39456.226    2563.9441    -42020.17    71.710291 
   23650    216.42523    14.803501    121874.08   -39409.454    2551.4594   -41960.914    71.994939 
   23700     213.8999     49.84711    121870.24    -39403.06    2521.6881   -41924.748    71.992347 
   23750    214.21271    186.28388    121856.12   -39413.429    2525.3759   -41938.805    72.178529 
   23800    215.49488    55.796729    121905.04    -39409.51    2540.4915   -41950.001    72.822376 
   23850    217.05088   -6.7269414    121990.32   -39391.318    2558.8353   -41950.153    72.974271 
   23900     214.7794   -23.176988    121986.53   -39404.756    2532.0567   -41936.813    73.181885 
   23950    215.11876   -5.1477616    121827.04   -39431.099    2536.0574   -41967.156    73.436403 
   24000    215.27619    87.371102    121736.87   -39418.687    2537.9134     -41956.6    73.409876 
   24050    216.87708   -58.877635    121736.58     -39426.1    2556.7864   -41982.886    73.391422 
   24100    217.65725    19.216688    121778.61    -39408.65    2565.9839   -41974.634      73.5239 
   24150    215.31818    12.280217    121692.54   -39419.192    2538.4084   -41957.601    73.771164 
   24200    215.78773   -81.278907    121615.46   -39418.997     2543.944   -41962.941    73.662732 
   24250    214.27086    188.39127    121543.88   -39433.572    2526.0614   -41959.633    73.728175 
   24300    216.07752   -65.745643    121587.38   -39433.174    2547.3603   -41980.534    73.950511 
   24350    210.96149   -74.723431    121509.67   -39375.132    2487.0469   -41862.179    74.128611 
   24400     214.4033    106.14041    121583.76   -39401.402    2527.6227   -41929.025    74.132308 
   24450    219.45372     132.0665    121547.92   -39387.823    2587.1626   -41974.985    74.343124 
   24500    215.69857    19.625603    121700.13   -39405.342    2542.8928   -41948.235    74.661325 
   24550    215.12941    149.02035    121810.88   -39449.514     2536.183   -41985.697    74.795864 
   24600    213.47049    66.868593     121928.6   -39458.691    2516.6257   -41975.317    75.201725 
   24650    216.61003    18.127015     121917.3   -39425.602    2553.6382    -41979.24    75.357827 
   24700    216.55218   -21.770647    121829.62   -39430.337    2552.9561   -41983.294    75.308214 
   24750     215.0369     71.31551    121789.24   -39378.586    2535.0923   -41913.679    75.575041 
   24800    219.60269   -125.27788    121772.16    -39357.68    2588.9189   -41946.599    75.759435 
   24850    222.10004    85.476813     121776.5   -39335.573    2618.3605   -41953.933    76.137448 
   24900    216.06938    9.5053809    121886.91   -39290.292    2547.2643   -41837.557    76.207363 
   24950     222.1319   -32.070841     121843.3   -39301.724     2618.736    -41920.46    76.064743 
   25000    221.83971   -116.01587    121950.66   -39369.347    2615.2913   -41984.638    76.279445 
   25050    217.54629    51.879416    121824.03   -39390.453    2564.6757   -41955.129    76.277893 
   25100    215.19684    97.825707    121746.46   -39391.058    2536.9779   -41928.035    76.317874 
   25150    219.50514    7.4222909    121779.02   -39384.893    2587.7688   -41972.662    76.315641 
   25200    214.72348   -201.40971    121662.84   -39425.066    2531.3974   -41956.463    76.605278 
   25250    218.77125    43.491365    121623.95   -39410.392    2579.1169   -41989.509    76.801327 
   25300     216.3597    59.736282    121684.67   -39450.695    2550.6869   -42001.382    76.979707 
   25350    210.97369    63.344374    121734.47   -39450.854    2487.1907   -41938.045    77.306665 
   25400    211.96853    5.8277413    121647.61   -39499.705     2498.919   -41998.624    77.272604 
   25450    208.42952   -96.248369    121467.35   -39506.316    2457.1973   -41963.513    77.487431 
   25500    210.89617    135.87786    121485.42   -39453.818    2486.2768   -41940.095    77.577059 
   25550     216.2816   -57.437556    121546.27    -39455.27    2549.7662   -42005.036    77.735881 
   25600    215.81901   -91.266928    121505.37   -39485.852    2544.3127   -42030.164    77.976375 
   25650     214.2747    37.925933    121574.56   -39528.225    2526.1066   -42054.331    78.068707 
   25700    210.08329    144.79205     121666.1   -39562.633    2476.6937   -42039.327    78.346933 
   25750    213.02208    27.501804    121720.18    -39561.48    2511.3394   -42072.819    78.469261 
   25800    213.46109     -64.4152    121682.18   -39594.474     2516.515   -42110.989    78.635044 
   25850    208.69075    101.54312    121709.11   -39643.128    2460.2769   -42103.405    78.901792 
   25900    210.34555    47.539686    121802.22   -39658.515    2479.7856     -42138.3    79.028492 
   25950    216.23969    25.538917    121906.46   -39633.036    2549.2722   -42182.308    78.959922 
   26000    213.52942    39.920718     121944.5   -39576.592    2517.3205   -42093.912    79.106734 
   26050    211.39377   -37.474487    121802.91   -39592.679     2492.143   -42084.822    79.251647 
   26100    209.05649   -52.275408    121774.79   -39630.033    2464.5886   -42094.621    79.362013 
   26150    214.01343   -116.29163    121778.98   -39608.548    2523.0265   -42131.575    79.486064 
   26200    213.48463    90.226884    121856.17   -39585.958    2516.7924    -42102.75    79.683586 
   26250     210.5948   -9.9691343    121893.14   -39588.355     2482.724   -42071.079    79.885643 
   26300    212.59434   -121.12534    121841.78   -39586.986    2506.2967   -42093.282    79.975351 
   26350    210.92839   -3.6571693    121856.33   -39613.204    2486.6567   -42099.861     80.08346 
   26400    213.12612     98.11114    121816.88   -39590.651     2512.566   -42103.217    80.111005 
   26450    212.92415    14.781543    121856.34   -39632.156    2510.1849   -42142.341    80.286752 
   26500    212.92579    48.351492    121835.27   -39648.473    2510.2042   -42158.677    80.515045 
   26550    209.86283   -193.64005    121873.21   -39672.477    2474.0947   -42146.571    80.772373 
   26600    210.70932   -89.775449    121698.68   -39614.502     2484.074   -42098.576    80.837447 
   26650    217.38348   -156.34966    121613.39   -39562.109    2562.7564   -42124.866    81.002119 
   26700    212.15488    119.46373    121555.11   -39526.953    2501.1159   -42028.069    81.233764 
   26750    212.34862    118.58324    121513.18   -39534.987    2503.3999   -42038.387    81.343686 
   26800    214.23555   -30.865827    121568.57   -39520.918    2525.6451   -42046.563    81.607504 
   26850    213.85419    96.016919    121568.72   -39521.686    2521.1492   -42042.835    81.775831 
   26900    217.02065   -101.60645    121693.96   -39492.231     2558.479    -42050.71    81.796006 
   26950    216.19068    16.667875    121615.07   -39489.334    2548.6944   -42038.028     81.76611 
   27000    212.83694   -20.335397       121646    -39513.87    2509.1567   -42023.026    82.190186 
   27050    214.63295   -3.6273998    121623.25   -39493.704    2530.3301   -42024.034    82.342787 
   27100    214.63753    1.9226003    121518.13   -39543.965    2530.3841   -42074.349    82.380603 
   27150    215.79435    54.689118    121440.27   -39508.412     2544.022   -42052.434     82.34922 
   27200    213.25923   -16.186407    121445.13   -39548.054    2514.1352   -42062.189    82.346533 
   27250    213.75251    14.538593    121427.47   -39574.441    2519.9505   -42094.392    82.380647 
   27300    214.59615    170.81351    121622.49    -39530.02    2529.8962   -42059.916    82.630471 
   27350    212.19092    93.915628    121778.77   -39538.667    2501.5408   -42040.208    83.032342 
   27400    215.13352     43.05607       121817   -39569.903    2536.2314   -42106.134    82.952919 
   27450    213.11658     24.45845    121861.53   -39561.701    2512.4535   -42074.154    83.106304 
   27500    212.57626    88.656511    121919.24   -39532.988    2506.0835   -42039.071     83.03884 
   27550    215.07196    -59.13265    121843.23   -39551.356    2535.5056   -42086.862    83.288073 
   27600     218.1554    75.044829    121946.75    -39485.86    2571.8566   -42057.717    83.614856 
   27650    216.37502   -138.75572    121894.42   -39494.599    2550.8675   -42045.466    83.645886 
   27700    214.93671   -81.771152    121622.65   -39522.929    2533.9111    -42056.84    83.727205 
   27750    211.89462    188.55623    121639.08   -39495.945    2498.0476   -41993.992    83.900837 
   27800    217.70701    231.54814    121777.94   -39433.817    2566.5705   -42000.387    84.173303 
   27850    213.67854     49.54508    121913.17   -39455.467    2519.0785   -41974.545    84.305177 
   27900    215.64633    4.3625107     121859.9   -39471.026     2542.277   -42013.303    84.443083 
   27950    216.75247   -19.204623    121833.42    -39467.91    2555.3174   -42023.227    84.488263 
   28000    213.72302   -14.276877     121804.2   -39511.275    2519.6029   -42030.878    84.655491 
   28050     216.8256     47.72359    121896.68   -39449.876    2556.1796   -42006.056    84.884479 
   28100    216.35477   -153.84797    121829.81   -39431.508    2550.6289   -41982.137    84.962796 
   28150    212.82632   -5.6337294    121791.74   -39464.934    2509.0316   -41973.966     85.04926 
   28200    210.13893   -118.43691    121735.23   -39522.884    2477.3497   -42000.234    85.105207 
   28250    215.52151   -150.00311    121650.98   -39521.919    2540.8055   -42062.725    85.174414 
   28300    213.48316    128.83733    121573.53   -39451.931    2516.7751   -41968.706    85.380438 
   28350    215.30357   -54.657127    121670.24   -39439.401    2538.2361   -41977.637    85.572206 
   28400    216.56461   -76.051402    121701.29   -39437.106    2553.1027   -41990.209     85.68522 
   28450    216.26354    87.294439    121672.41   -39467.398    2549.5533   -42016.951    85.807653 
   28500    211.41531   -146.86376    121717.15   -39487.805     2492.397   -41980.202    86.149975 
   28550    210.98437   -88.137294    121529.36   -39470.167    2487.3166   -41957.483    86.128722 
   28600    214.17226   -42.585986    121542.19   -39459.584    2524.8989   -41984.483    86.008504 
   28650    216.47291    73.126797    121608.76     -39423.7    2552.0216   -41975.722    86.266125 
   28700    215.04319   -58.213482    121619.34   -39441.367    2535.1665   -41976.533    86.330593 
   28750    217.92348   -119.20163    121550.19   -39439.259    2569.1226   -42008.381    86.450952 
   28800    216.38897   -139.34476    121393.17    -39389.61    2551.0321   -41940.642    86.880911 
   28850    216.62919    113.66618    121405.49   -39375.195     2553.864   -41929.059    86.742591 
   28900    219.57167    84.282708    121520.79   -39359.498    2588.5532   -41948.051    86.822103 
   28950    217.22618    70.569097    121565.62   -39372.916    2560.9019   -41933.818    87.106036 
   29000    216.76328   -39.708815    121503.51   -39390.848    2555.4448   -41946.293    87.371282 
   29050     216.1543    111.09835       121707   -39401.939    2548.2654   -41950.204    87.774202 
   29100    220.12957   -153.91851    121694.67   -39386.354    2595.1303   -41981.484    87.990423 
   29150    217.31926    45.411201     121564.1   -39349.512    2561.9993   -41911.511    88.214746 
   29200    219.85252    76.149814    121592.91    -39384.04    2591.8642   -41975.905    88.491165 
   29250    218.05931   -60.368865       121628   -39360.528    2570.7239   -41931.252    88.651298 
   29300    216.12439    25.539681    121731.53   -39394.446    2547.9128   -41942.358    88.818971 
   29350    214.43922    87.399058    121776.73   -39436.314    2528.0462    -41964.36    88.951605 
   29400    214.72721    110.73181    121848.64   -39422.942    2531.4414   -41954.384    89.160646 
   29450    214.84711   -63.371864    121752.05   -39474.042    2532.8549   -42006.897    89.324958 
   29500    217.47635    167.90296    121685.79    -39431.87    2563.8513   -41995.722    89.373899 
   29550    221.36424    4.8629175    121768.93   -39436.133     2609.686   -42045.819    89.471274 
   29600    211.92242   -62.029071    121815.99   -39465.513    2498.3754   -41963.888    89.608325 
   29650    214.10901   -90.102639     121634.3   -39448.092    2524.1533   -41972.246    89.516253 
   29700    216.03424    48.497671    121635.79   -39488.467    2546.8501   -42035.317    89.596532 
   29750     215.4648    48.741895    121657.53   -39525.716    2540.1369   -42065.853    89.686682 
   29800    212.89867    8.6653647    121657.24   -39488.186    2509.8845    -41998.07    89.863929 
   29850     216.4497    65.793311    121796.44   -39465.522    2551.7479    -42017.27    90.016808 
   29900    216.70552   -56.064648    121751.24   -39439.315    2554.7639   -41994.079    90.148508 
   29950    216.58389   -115.36085    121749.81   -39439.038    2553.3299   -41992.368    90.455674 
   30000    215.29421   -49.726552    121619.43   -39500.364    2538.1258    -42038.49    90.353184 
   30050     215.5388     151.9354    121746.74   -39438.012    2541.0093   -41979.022    90.540082 
   30100    216.75923   -28.183438    121805.19   -39417.986    2555.3971   -41973.383    90.716512 
   30150    216.57069   -113.20632    121857.59    -39455.78    2553.1744   -42008.955    91.038147 
   30200    213.74278   -111.89504    121796.46   -39444.582    2519.8358   -41964.417    91.192593 
   30250    215.12837    93.300379    121756.11   -39411.443    2536.1707   -41947.614     90.91806 
   30300    213.90936    76.179888    121774.67   -39459.935    2521.7996   -41981.734    90.872622 
   30350     212.4617    17.093317    121771.07   -39492.987     2504.733    -41997.72    90.988867 
   30400    213.95354    1.1765601    121758.74   -39495.899    2522.3205    -42018.22    90.901095 
   30450    216.42691   -99.386814    121679.94   -39512.059    2551.4793   -42063.538    90.782246 
   30500    210.36232    -270.7167    121749.56    -39519.78    2479.9832   -41999.764    91.003221 
   30550    214.04006    50.075985    121806.65   -39516.475    2523.3405   -42039.815    91.063264 
   30600    218.58647    -31.89857    121886.05   -39455.451    2576.9386    -42032.39    91.357666 
   30650    210.86655    90.334674    121948.44   -39494.363    2485.9276    -41980.29    91.567743 
   30700     212.5381    36.732035    121949.02   -39460.887    2505.6337    -41966.52    91.855842 
   30750    215.61895    256.02842    121952.26   -39512.248    2541.9542   -42054.202    91.974683 
   30800     215.1424   -5.4167982    122074.39    -39544.04    2536.3361   -42080.376    92.126484 
   30850    209.62584   -141.55706     122051.4   -39532.836    2471.3008   -42004.137    92.341873 
   30900    212.29723   -68.495497    121990.63   -39540.489     2502.794   -42043.283    92.683239 
   30950    210.92498   -116.63581    121765.43   -39517.326    2486.6165   -42003.942    92.711328 
   31000    210.02537   -144.56048    121587.91   -39528.426    2476.0109   -42004.437    92.700672 
   31050    213.34836    77.803152    121535.95   -39475.625     2515.186   -41990.811    92.799623 
   31100    214.16156    119.24325    121602.75   -39476.301    2524.7729   -42001.074    92.857813 
   31150    212.46294    46.915936    121665.11   -39412.702    2504.7476   -41917.449    93.038384 
   31200    218.19484   -3.8344193    121742.13   -39422.788    2572.3216   -41995.109     93.20689 
   31250    217.01185   -97.082803    121608.46   -39454.681    2558.3752   -42013.057    93.172428 
   31300    213.67793    45.089698    121571.44   -39444.504    2519.0713   -41963.575    93.445402 
   31350    219.87294   -94.533474    121633.55   -39440.428    2592.1049   -42032.533    93.652286 
   31400     213.9656   -120.76552    121617.26   -39422.109    2522.4626   -41944.572    93.953496 
   31450    215.69079   -11.074134    121685.53   -39395.596    2542.8011   -41938.397    94.166098 
   31500    217.94161    46.060242    121694.15   -39360.061    2569.3362   -41929.397     94.16173 
   31550    214.78615    37.669254    121709.04   -39362.669    2532.1362   -41894.805    94.325957 
   31600    217.73093   -80.947905    121804.31   -39429.704    2566.8526   -41996.557    94.664347 
   31650    213.67153     1.102499    121589.23   -39422.831    2518.9958   -41941.827    94.692283 
   31700    213.04315   -16.668134    121513.87   -39448.389    2511.5878   -41959.977    94.675165 
   31750    213.65644    15.252346    121557.83   -39419.844    2518.8179   -41938.662    94.945583 
   31800    213.25602    168.66872    121624.97   -39445.752    2514.0974    -41959.85    94.919497 
   31850    212.56303    101.61561    121653.03   -39468.867    2505.9276   -41974.795    95.263765 
   31900    211.63102   -50.538753     121545.6   -39455.854      2494.94   -41950.794    95.253557 
   31950    213.59928    80.672358    121671.21   -39451.713    2518.1441   -41969.857    95.453694 
   32000    209.67276    -59.86286    121641.96   -39433.019     2471.854   -41904.873    95.519821 
   32050    213.25615   -1.8701093    121637.42   -39427.257    2514.0989   -41941.356    95.569036 
   32100    213.46322    11.920281    121612.23   -39448.717    2516.5401   -41965.258     95.67744 
   32150    212.08112    73.880605    121643.16    -39426.04    2500.2463   -41926.287    95.988883 
   32200    211.27203   -70.946526    121655.99   -39439.862    2490.7079    -41930.57    96.088856 
   32250    210.66911   -32.492125     121612.2   -39447.059       2483.6   -41930.659    96.066297 
   32300    213.88751   -209.18114    121493.43   -39443.221     2521.542   -41964.763    96.130011 
   32350    209.24477     36.23706    121362.05   -39455.575    2466.8083   -41922.383    96.623106 
   32400    213.83332     116.0464    121414.72   -39439.924    2520.9032   -41960.827     97.02073 
   32450    215.32911   -31.892381    121440.89   -39424.043    2538.5372    -41962.58    97.167252 
   32500    212.97357    50.556404    121544.42   -39428.025    2510.7675   -41938.792    97.704472 
   32550    212.13339   -45.462676    121670.09    -39451.66    2500.8626   -41952.522    97.937788 
   32600    211.60694   -20.035526    121720.97     -39421.1    2494.6562   -41915.756    98.100613 
   32650    212.73229    77.135843    121874.85   -39430.163     2507.923   -41938.086    98.384942 
   32700    215.74763    -84.11936    121736.02   -39429.591    2543.4712   -41973.062    98.505416 
   32750    213.31786     20.99861    121631.21   -39419.615    2514.8264   -41934.441    98.484849 
   32800    214.36271    109.78457    121724.07   -39445.928    2527.1442   -41973.072    98.677982 
   32850     214.0023    165.09117    121919.36   -39424.983    2522.8953   -41947.878    98.850144 
   32900     217.0339   -62.120732     121974.5    -39419.12    2558.6351   -41977.755    98.780079 
   32950    218.35777    39.269513       121932   -39343.758    2574.2424       -41918     98.99437 
   33000    222.24416    23.866293    121860.94   -39314.213    2620.0594   -41934.272    99.119918 
   33050     221.2433   -126.97211    121813.12   -39257.874    2608.2602   -41866.134    99.279895 
   33100    220.64193    -16.83463    121808.33   -39250.703    2601.1706   -41851.874    99.339287 
   33150    219.79771   -188.55058    121667.94    -39264.87     2591.218   -41856.088    99.277394 
   33200    221.68768   -59.171976    121600.05   -39263.953    2613.4991   -41877.452     99.70678 
   33250    220.76375   -79.446875    121666.18   -39273.857    2602.6068   -41876.464    100.00079 
   33300     218.2449    111.26896    121716.02   -39284.848    2572.9117    -41857.76    100.42751 
   33350    218.32139   -75.487923    121638.26   -39313.674    2573.8136   -41887.487    100.70277 
   33400    219.49821    63.635871    121649.17   -39367.374    2587.6872   -41955.061    100.87667 
   33450    215.23181   -35.852592    121598.15   -39409.983    2537.3901   -41947.373    100.88208 
   33500    217.56371    93.512079       121527   -39421.748    2564.8811   -41986.629    101.04454 
   33550    214.36832   -21.682802       121521    -39449.85    2527.2103    -41977.06    101.17811 
   33600    217.01892    17.991709    121583.69   -39466.861    2558.4586   -42025.319    101.27204 
   33650    210.32678   -37.265298    121613.82   -39487.293    2479.5642   -41966.858    101.63017 
   33700    216.75601    209.08821    121762.43   -39413.652    2555.3591   -41969.011    101.95714 
   33750    215.14553    33.510308    121856.13   -39456.019     2536.373   -41992.392    102.05121 
   33800    210.85388    -131.9794    121739.21   -39500.618    2485.7782   -41986.396     101.7583 
   33850    216.28727   -81.706303    121698.51   -39515.512    2549.8331   -42065.345    101.82945 
   33900    210.29477     31.23425    121663.26   -39522.856    2479.1868   -42002.043    102.00765 
   33950    211.56888   -162.99537    121765.17   -39527.587    2494.2074   -42021.794    102.04971 
   34000    215.48421   -59.981857    121617.14    -39531.61    2540.3657   -42071.976    102.05064 
   34050     213.1503    -156.8452    121590.31   -39513.599     2512.851    -42026.45    102.16921 
   34100    211.66947    44.953883    121521.53   -39497.832    2495.3933   -41993.225    102.21807 
   34150    217.78423    1.6376057    121528.66   -39479.382    2567.4809   -42046.862    102.47738 
   34200    215.38516    177.68815     121585.4   -39451.899     2539.198   -41991.097    102.60009 
   34250    212.22964   -22.852873     121798.7    -39420.22    2501.9972   -41922.217    102.99843 
   34300     222.5678   -72.143093    121713.29   -39418.997    2623.8749   -42042.872    103.10194 
   34350    220.44035    24.684989    121672.17   -39441.184    2598.7941   -42039.978    103.16575 
   34400    220.78963    140.57186    121755.22   -39358.498    2602.9119   -41961.409    103.23576 
   34450    218.13157   -49.434075    121769.24   -39358.613    2571.5757   -41930.189    103.26809 
   34500    215.90839   -64.302482    121729.12   -39373.424    2545.3664   -41918.791    103.53074 
   34550    218.86819    1.5112254    121657.49   -39362.904    2580.2598   -41943.164    103.71906 
   34600     221.3154   -36.993306    121564.19   -39324.536    2609.1103   -41933.646    103.92402 
   34650    218.16211   -70.870541    121626.12   -39321.027    2571.9358   -41892.963    103.97243 
   34700    217.45049    137.83868    121689.62    -39320.89    2563.5464   -41884.436    104.30675 
   34750    217.44883    47.944318    121658.57   -39353.492    2563.5269   -41917.018    104.40528 
   34800     214.8045   -85.372843    121539.46   -39373.311    2532.3525   -41905.663    104.11143 
   34850    214.46185   -33.834016    121478.92   -39396.412     2528.313   -41924.725    104.36234 
   34900    214.97954   -186.19969    121426.12   -39423.146    2534.4161   -41957.562    104.30058 
   34950    217.14384     108.9812    121380.76   -39408.312    2559.9313   -41968.243    104.42424 
   35000    216.82537   -108.20659    121484.19   -39352.479    2556.1768   -41908.656    104.75753 
   35050    216.67296    84.771583    121438.72   -39389.573      2554.38   -41943.953    104.86728 
   35100    218.72581    68.139876    121369.38   -39338.529    2578.5813   -41917.111    104.96693 
   35150    216.21378    49.106962    121532.77   -39335.433    2548.9667   -41884.399    105.44633 
   35200    218.27178    108.52757    121612.89   -39365.646    2573.2287   -41938.875    105.58871 
   35250     219.4122    13.977571    121648.46   -39389.707    2586.6732    -41976.38    105.94884 
   35300    215.19081   -1.4425852    121565.16   -39385.022    2536.9068   -41921.929    106.06534 
   35350    215.80188   -141.74298     121469.3   -39393.155    2544.1107   -41937.266     106.1806 
   35400    219.49248    23.826287    121460.36    -39392.98    2587.6197     -41980.6     106.3656 
   35450    217.34147    76.500726    121490.32   -39423.163    2562.2611   -41985.424    106.44549 
   35500    210.68162    49.678277    121561.93   -39442.102    2483.7475    -41925.85    106.71933 
   35550    212.53932    101.17296    121661.35    -39465.33     2505.648   -41970.978    106.90233 
   35600    212.77664    90.333154    121750.92   -39459.335    2508.4459    -41967.78    106.78694 
   35650    213.73164    132.35559    121667.76   -39458.431    2519.7045   -41978.135    106.74852 
   35700    219.26201    -61.73785    121714.19   -39403.754    2584.9026   -41988.657     107.0043 
   35750    217.76092    41.327865    121786.49   -39434.862    2567.2061   -42002.068    107.09021 
   35800     215.5741    21.861549    121944.68   -39468.855    2541.4254   -42010.281    107.28755 
   35850    217.38561   -20.225047    121848.25   -39496.455    2562.7816   -42059.237    107.56642 
   35900     212.1365    6.6764546    121873.43   -39518.475    2500.8992   -42019.375    107.80981 
   35950    218.23969    56.181768    121866.42   -39450.815    2572.8504   -42023.665    108.01108 
   36000    214.51348   -29.994186    121816.01   -39517.619    2528.9216   -42046.541    108.26311 
   36050    211.62705   -51.471236    121729.11   -39562.677    2494.8933    -42057.57    108.25838 
   36100     217.2261    107.91907    121676.99    -39533.68     2560.901   -42094.581    108.19803 
   36150    216.95081   -124.69753    121681.29   -39569.922    2557.6556   -42127.577    108.53242 
   36200    217.46086   -11.823733    121747.47   -39544.094    2563.6686   -42107.762    108.74914 
   36250    212.28791   -117.32735     121706.1    -39578.44    2502.6841   -42081.125    109.02859 
   36300    213.81578   -32.485987    121658.38    -39612.92    2520.6964   -42133.617    109.21146 
   36350    211.40607   -154.18937     121628.9   -39613.786     2492.288   -42106.074    109.39986 
   36400    213.51699   -49.485368    121599.39    -39598.39     2517.174   -42115.564    109.51416 
   36450    211.04441    187.38078    121688.28    -39585.27    2488.0244   -42073.295    109.67201 
   36500    212.46018   -34.310481    121639.33   -39604.026    2504.7151   -42108.741    109.71941 
   36550    210.29278   -125.26458    121596.64   -39598.544    2479.1634   -42077.707    109.55701 
   36600    214.05741    111.28333    121610.16   -39589.872    2523.5451   -42113.417     109.5142 
   36650    212.58446    82.688589    121745.44   -39569.531    2506.1803   -42075.711    109.81403 
   36700    218.16149   -38.366074    121759.15   -39527.804    2571.9284   -42099.732    109.84779 
   36750    220.71504   -47.700888    121772.37   -39516.077    2602.0326   -42118.109    109.70043 
   36800    217.76159       65.789     121865.4    -39528.12     2567.214   -42095.334    110.10856 
   36850    217.67585    152.49623    121920.71   -39505.977    2566.2032    -42072.18    110.29888 
   36900    218.59527   -16.621721    121996.83   -39554.533    2577.0423   -42131.576    110.55461 
   36950    215.46614    94.453368    122030.03   -39517.857    2540.1526    -42058.01    110.56695 
   37000    214.77729   -54.886516    121989.64   -39545.148    2532.0318   -42077.179    110.72247 
   37050    214.47806    52.815801    121980.85   -39561.663    2528.5041   -42090.167    111.11306 
   37100     210.2856   -88.113923    121987.41   -39587.012    2479.0787    -42066.09    111.01157 
   37150      215.657    91.509916    121903.77   -39555.102    2542.4027   -42097.504    111.03536 
   37200    215.48114   -63.380513    121782.29   -39556.737    2540.3295   -42097.067    111.31212 
   37250    214.41066    62.488709    121813.15   -39547.285    2527.7095   -42074.995    111.33494 
   37300    215.69136   -54.606428    121805.72   -39542.613    2542.8079   -42085.421    111.47094 
   37350    217.39538    3.0225875    121836.24   -39552.544    2562.8967   -42115.441    111.68352 
   37400    216.89608   -25.180807    121807.78   -39486.125    2557.0103   -42043.135    112.03665 
   37450    215.83464    10.615965    121787.71   -39480.243     2544.497    -42024.74    112.15089 
[...]
  191000    213.70579    112.73337    121656.49   -39472.058    2519.3997   -41991.458    555.48552 
  191050    213.74572   -42.031378    121719.28   -39453.017    2519.8705   -41972.887    556.18035 
  191100    214.68717   -7.5209503    121696.46   -39477.045    2530.9693   -42008.014    556.19968 
  191150    214.66121   -45.518261     121710.4   -39486.379    2530.6632   -42017.042    556.30782 
  191200    216.94748   -73.025562    121774.32   -39480.575    2557.6163   -42038.191    556.90124 
  191250    213.72702    7.2091288    121557.87   -39490.438      2519.65   -42010.088     556.7635 
  191300    215.17919   -37.550391    121573.58   -39473.163    2536.7698   -42009.933    556.85297 
  191350    213.60922    11.640382     121551.2   -39465.218    2518.2613   -41983.479    557.06285 
  191400    210.36722   -72.263484       121654   -39494.511     2480.041   -41974.552     557.7584 
  191450     217.0133   -19.414445    121586.52   -39419.788    2558.3923   -41978.181    557.36769 
  191500    218.39187   0.84804854    121437.35   -39409.817    2574.6444   -41984.461    557.08882 
  191550    207.15355   -18.862281    121343.01   -39453.297    2442.1547   -41895.452    557.24179 
  191600    210.20247    113.09819    121402.45   -39447.776    2478.0988   -41925.875     557.6883 
  191650    210.78997    264.89989    121552.15   -39415.443    2485.0248   -41900.468    558.09365 
  191700     218.1409   -4.9106367     121616.9   -39384.251    2571.6857   -41955.937    557.58669 
  191750    217.90836   -59.975331    121623.18   -39344.741    2568.9442   -41913.685    557.19415 
  191800    214.49362    55.657669    121605.23   -39360.484    2528.6876   -41889.171    557.37001 
  191850    217.84056    58.500062    121604.57   -39391.658     2568.145   -41959.803    557.50664 
  191900    215.73905    21.515887    121525.45   -39402.015    2543.3701   -41945.385    557.34444 
  191950    210.65852   -93.604678    121582.46   -39432.506    2483.4751   -41915.981     557.8856 
  192000    216.79252      222.644    121715.36   -39361.553    2555.7895   -41917.343    558.71053 
  192050    215.28411    -10.70341    121733.31   -39389.674    2538.0067   -41927.681    558.91957 
  192100    215.17691    114.27182    121589.79   -39373.885    2536.7429   -41910.628    558.43147 
  192150    214.54866   -85.301977    121672.11   -39424.541    2529.3364   -41953.877    559.08828 
  192200    217.62972   -91.758455    121635.36   -39418.857    2565.6593   -41984.516    559.90113 
  192250    211.65082    103.52071    121596.16   -39453.883    2495.1734   -41949.057    559.90484 
  192300    213.72858   -12.499042    121579.71   -39428.444    2519.6684   -41948.113    560.61169 
  192350    211.39526    101.27994    121613.67   -39389.926    2492.1607   -41882.087    560.84142 
  192400    213.42133   -135.76262    121584.17   -39396.223    2516.0462    -41912.27    560.82073 
  192450      215.961     56.18851    121689.25   -39370.323    2545.9867    -41916.31    561.53294 
  192500    213.33066   -6.1334708    121757.75   -39406.505    2514.9773   -41921.483    561.60818 
  192550    216.57005   -45.944809     121722.6   -39396.615    2553.1668   -41949.782    561.88522 
  192600    222.68076   0.54945155    121667.57   -39305.617    2625.2066   -41930.824    561.64025 
  192650     220.4153    67.753868    121812.38   -39307.159    2598.4988   -41905.658    562.44336 
  192700     215.7935    87.447737    121901.27   -39373.967     2544.012   -41917.979    562.85181 
  192750    215.75106   -76.256989    121860.73   -39419.917    2543.5116   -41963.428    563.20917 
  192800    214.43727    38.898902    121809.82   -39426.036    2528.0233   -41954.059    562.53267 
  192850    212.47506   -46.792665    121875.74   -39446.717    2504.8906   -41951.608    562.78108 
  192900    212.86697    8.6282418    121850.42   -39417.277    2509.5108   -41926.788    562.86389 
  192950    211.51845    24.295342    121930.87   -39422.853     2493.613   -41916.466    563.09038 
  193000    215.84114   -42.102449    122019.95   -39433.799    2544.5736   -41978.373    563.48477 
  193050     210.7079    111.45422     122011.3   -39460.161    2484.0573   -41944.219    563.30897 
  193100    212.18542    115.17768     122062.8   -39418.878     2501.476   -41920.354     563.5067 
  193150    217.72436   -146.07083    122161.03   -39379.875    2566.7751    -41946.65      564.162 
  193200    215.48292   -90.021759    122138.09   -39406.982    2540.3505   -41947.332    564.32697 
  193250    211.55246    152.16702    122122.96   -39418.753    2494.0138   -41912.767     564.3391 
  193300    215.80064    85.888684    122174.93   -39389.987    2544.0961   -41934.083     564.3742 
  193350    219.16456      46.0496    122128.55   -39365.458    2583.7537   -41949.212     563.9157 
  193400    218.01609   -33.206988     122183.9   -39383.961    2570.2143   -41954.175    564.30702 
  193450    220.30892   -191.61052    122063.78   -39405.121    2597.2447   -42002.366    564.03804 
  193500    215.40867   -109.85923    122018.96   -39409.062    2539.4752   -41948.537    563.71935 
  193550    213.29386   -180.91525    121838.77   -39463.157    2514.5434   -41977.701    563.30183 
  193600     214.0708   -27.225399    121737.42   -39430.033    2523.7029   -41953.736    563.41392 
  193650    211.53375   -120.02944     121749.1   -39469.303    2493.7933   -41963.097    564.11641 
  193700    217.06355    38.352464    121859.58   -39415.449    2558.9847   -41974.434    564.62055 
  193750    214.01685    55.816602    121867.66   -39426.088    2523.0668   -41949.155    564.07596 
  193800     215.1038     73.51758    121901.42   -39435.868     2535.881   -41971.749    564.19042 
  193850    220.49353    83.836295    121833.43   -39411.337    2599.4211   -42010.758    564.31611 
  193900    212.91805    56.597697    121917.42   -39400.784     2510.113   -41910.897    564.85329 
  193950    213.95255   -202.63642     121900.4   -39419.662    2522.3088   -41941.971    564.83649 
  194000    213.33236   -40.048182    121767.55   -39419.206    2514.9974   -41934.204     564.7278 
  194050    217.08621     -8.35081    121820.54   -39378.594    2559.2519   -41937.846    565.56938 
  194100    221.10797    172.92304    122004.67   -39373.902    2606.6648   -41980.567      566.446 
  194150    215.38477    38.477733    122007.97   -39393.335    2539.1934   -41932.528    567.00065 
  194200    217.93212    74.762485    122052.49   -39377.696    2569.2244    -41946.92    566.99235 
  194250    216.63661    182.98117     122103.2   -39372.045    2553.9514   -41925.997    567.38982 
  194300    216.11599   -61.755635    122079.45   -39434.709    2547.8138   -41982.522    567.43646 
  194350     217.5577    17.294897    122011.61   -39378.146    2564.8103   -41942.956    567.09058 
  194400    217.12109   -59.302318    122021.44   -39378.278     2559.663   -41937.941    567.07983 
  194450    216.81343   -102.10067    122070.26   -39446.021     2556.036   -42002.057      567.414 
  194500    215.21348    171.11804    121946.93    -39461.69     2537.174   -41998.864    567.63202 
  194550    216.92126    70.648083     122012.8   -39475.972    2557.3072   -42033.279      567.887 
  194600    210.85686    83.591792    122026.71    -39506.14    2485.8134   -41991.954    568.17122 
  194650    215.87883   -91.922354    122021.39   -39450.105    2545.0179   -41995.123    568.35106 
  194700    210.98564     98.86361    121994.96   -39456.083    2487.3316   -41943.414    568.39263 
  194750    217.95598    2.3063665    122012.46   -39436.152    2569.5056   -42005.657    568.83313 
  194800    220.71766   -32.285221    122070.66   -39433.515    2602.0634   -42035.578    568.71094 
  194850    219.67468    178.73228    122183.09   -39423.417    2589.7675   -42013.185    569.41127 
  194900    212.93469   -78.937493    122204.12   -39465.106    2510.3092   -41975.416    569.87666 
  194950    217.07195   -177.38192    122081.15    -39464.44    2559.0838   -42023.524    569.27563 
  195000    217.37218   -119.74231    122024.95   -39451.744    2562.6232   -42014.368    569.34316 
  195050    215.02709   -78.602141    122027.16    -39453.11    2534.9767   -41988.086     569.6529 
  195100    210.41738    -72.29791    122027.98   -39463.706    2480.6323   -41944.338    569.74471 
  195150    214.84672    11.308099    122065.57   -39476.509    2532.8503    -42009.36    569.62594 
  195200    209.24467    -128.1996    122017.65   -39468.308    2466.8071   -41935.115    569.16161 
  195250     215.3293    18.392891    122022.31   -39422.884    2538.5394   -41961.423    568.98102 
  195300    215.42104   -14.391688    121988.71   -39490.696     2539.621   -42030.317    568.86315 
  195350    215.16911   -96.322554     121936.8   -39446.768    2536.6509   -41983.419    568.98353 
  195400    215.92241    41.222702    121926.89   -39455.553    2545.5317   -42001.084    569.33951 
  195450    210.28965   -48.056793     121834.4   -39520.131    2479.1265   -41999.258    569.34225 
  195500    212.68333    23.224549    121744.14   -39480.746    2507.3459   -41988.092    568.85297 
  195550    213.33232    140.57313    121760.77   -39443.196    2514.9969   -41958.193    568.39457 
  195600    219.11892     115.0206    121978.64   -39434.356    2583.2157   -42017.572    569.34109 
  195650    215.02866   -22.357237    121936.19   -39432.026    2534.9952   -41967.021    569.58462 
  195700    217.94061   -55.253052    122001.05   -39424.905    2569.3244   -41994.229    570.14089 
  195750    217.92119    -52.65948     121936.3    -39469.81    2569.0956   -42038.906    569.81546 
  195800    214.39657    98.609735     121969.8   -39487.363    2527.5434   -42014.907    570.10306 
  195850    212.52874   -3.8773312    122104.06   -39434.281    2505.5234   -41939.804     570.8617 
  195900     217.2796    178.68453    122185.42    -39473.14    2561.5317   -42034.672    571.51957 
  195950    216.80159   -44.747858     122252.6   -39489.076    2555.8964   -42044.973    572.50911 
  196000    214.98687      15.6466    122251.44   -39510.299    2534.5025   -42044.801    572.45136 
  196050    216.87454   -119.13223    122069.49    -39476.74    2556.7565   -42033.497    572.84941 
  196100     216.7375    98.043212    122115.25   -39504.796    2555.1409   -42059.937    572.70787 
  196150    214.87174    121.27145    122167.87   -39538.909    2533.1453   -42072.054    572.62188 
  196200    215.96756   -13.067199    122165.74   -39510.521    2546.0639   -42056.585     572.2942 
  196250    213.60108   -30.477908    122177.91   -39556.944    2518.1653    -42075.11    572.62198 
  196300    216.27302  -0.15033957     122253.1   -39527.216    2549.6651   -42076.881    572.86729 
  196350    212.82566   0.42664696    122290.13   -39582.631    2509.0238   -42091.654    572.96094 
  196400    214.87116   -3.3631154    122206.61   -39580.143    2533.1384   -42113.281    572.25505 
  196450    215.60595   -15.385718    122211.55     -39615.9    2541.8009   -42157.701    572.35035 
  196500    208.41399   -4.7815352    122232.04   -39609.066    2457.0141    -42066.08     572.1795 
  196550     210.3352    102.45209    122135.23   -39643.921    2479.6635   -42123.584    572.21229 
  196600    210.94605    102.63451     122165.8    -39681.24    2486.8649   -42168.105    572.16249 
  196650     214.3626   -9.4825131    122235.01   -39602.543    2527.1429   -42129.686    572.27608 
  196700    208.95471   -119.54814    122124.67   -39610.585    2463.3888   -42073.974    571.83609 
  196750    211.09401   -59.973565    122094.52   -39589.214    2488.6092   -42077.823     572.3265 
  196800    214.91826    5.3409186    122013.65    -39615.44    2533.6937   -42149.134    571.94122 
  196850    207.66555    165.21743    122028.87   -39608.316    2448.1907   -42056.506     572.4861 
  196900    215.35162    79.980337    122146.29   -39584.988    2538.8026   -42123.791    573.05187 
  196950    213.52497  -0.58277773    122175.02   -39580.627    2517.2681   -42097.895    573.06841 
  197000    211.94402    164.42375    122247.29   -39607.124    2498.6301   -42105.754     573.2804 
  197050    208.99381   -21.348579     122249.2    -39631.23    2463.8497    -42095.08    573.29146 
  197100    213.92097    61.590099    122113.15    -39597.86    2521.9365   -42119.797    572.37567 
  197150    214.72422   -41.702733    122211.48    -39591.44    2531.4062   -42122.846    573.05999 
  197200    213.94571    -79.66531    122254.24   -39651.741    2522.2281    -42173.97    573.57947 
  197250    212.73751   -5.2301082    122249.36   -39598.852    2507.9846   -42106.836    573.80497 
  197300    215.94754    98.447711    122279.51   -39573.569    2545.8279   -42119.397      573.958 
  197350    216.65763    107.64866    122328.62   -39571.487    2554.1992   -42125.686    574.47873 
  197400    213.61013   -146.70371    122307.16   -39558.588     2518.272    -42076.86    574.35553 
  197450     210.5485    124.77012    122255.33   -39582.527    2482.1782   -42064.705    574.23035 
  197500    215.67507    28.854162    122266.93   -39542.996    2542.6157   -42085.612     574.2079 
  197550    218.57662    52.356183    122390.02   -39480.091    2576.8225   -42056.913    575.07932 
  197600    217.32924    11.925939    122551.51   -39505.185     2562.117   -42067.302    575.62868 
  197650    212.12175     61.61334    122506.13   -39531.185    2500.7254   -42031.911    575.35895 
  197700    216.46865   -117.58199    122568.33   -39557.283    2551.9714   -42109.254    575.52137 
  197750    210.75791   -130.73704    122413.93   -39540.944    2484.6469   -42025.591    575.50538 
  197800    219.06267    -34.09101    122364.24   -39531.097    2582.5526    -42113.65    575.28063 
  197850    216.83146   -30.894124    122320.89   -39554.103    2556.2486   -42110.351    575.19021 
  197900    214.81621   -37.656232    122334.24   -39569.563    2532.4906   -42102.053    575.15589 
  197950    217.60183    25.890609    122390.25   -39524.105    2565.3306   -42089.435    575.38643 
  198000    219.14793   -32.084138    122475.21   -39506.911    2583.5576   -42090.469    575.94234 
  198050    215.67457   -37.652037    122441.25   -39552.046    2542.6099   -42094.656    575.98105 
  198100    215.86455   -49.613039    122423.99    -39583.16    2544.8496   -42128.009    575.70641 
  198150    210.00537    104.23558    122491.46   -39575.397    2475.7751   -42051.172    576.32599 
  198200    215.64767   -17.788355    122469.81   -39579.631    2542.2928   -42121.924    576.39396 
  198250    213.99782    21.675501    122398.41   -39573.525    2522.8425   -42096.367    575.87254 
  198300    213.76911    154.59285    122402.05   -39534.588    2520.1462   -42054.734    575.84009 
  198350    214.96877    120.55623    122531.15   -39482.398    2534.2891   -42016.687    576.44741 
  198400    217.33729   -35.330317    122510.96     -39486.2    2562.2119   -42048.411    576.93545 
  198450    213.47394     33.36922    122574.52    -39508.27    2516.6665   -42024.936     577.1811 
  198500    213.32506   -55.484901    122434.45    -39468.12    2514.9113   -41983.031    577.16395 
  198550    209.11457   -117.02442    122255.87   -39545.255    2465.2733   -42010.529    576.88179 
  198600    217.26164   -13.171844    122154.81   -39496.564      2561.32   -42057.884    576.58445 
  198650    215.95328    12.487086    122171.03   -39484.206    2545.8956   -42030.101     577.0793 
  198700     212.0676    -148.4446    122078.27   -39529.676    2500.0869   -42029.763    576.05558 
  198750    208.99595   -25.878328    121873.26   -39509.799    2463.8749   -41973.674    575.67805 
  198800    213.95876   -74.758086    121847.08   -39538.122    2522.3821   -42060.504    575.59536 
  198850    215.48516    90.038326    121834.37   -39520.104    2540.3769   -42060.481    575.69528 
  198900    212.85516   -97.446616    121880.77   -39504.878    2509.3715   -42014.249    575.97081 
  198950    210.16834     -36.1276    121721.17   -39520.904    2477.6964     -41998.6    575.16829 
  199000    216.58918    239.85025    121793.14   -39477.119    2553.3923   -42030.511     575.2648 
  199050    216.98943   -157.53374    121762.41   -39402.333    2558.1109   -41960.444    575.42593 
  199100     214.6995    58.755447    121693.84   -39455.132    2531.1147   -41986.247    575.34005 
  199150    217.25417    50.666096    121753.73   -39465.548     2561.232    -42026.78    575.04419 
  199200    213.32698    135.93675    121856.49   -39466.804    2514.9339   -41981.738    575.70252 
  199250    216.63305    70.404266    121966.36   -39457.085    2553.9095   -42010.994    575.42766 
  199300     214.7913    46.708135    122049.18   -39490.195     2532.197   -42022.392    575.54849 
  199350    215.91283    112.50789    122068.99   -39474.857    2545.4188   -42020.276    575.39319 
  199400    215.78439    -162.1056    122069.94   -39474.682    2543.9046   -42018.587    576.04504 
  199450    212.07846   -51.287173    121974.24   -39548.314    2500.2149   -42048.529    576.12932 
  199500     211.6087   -22.748485    122021.74   -39558.122    2494.6769   -42052.799    576.41577 
  199550    215.18236   -3.1925115    122018.44   -39609.008    2536.8072   -42145.815    576.19143 
  199600    209.74918     -72.5315     122104.9   -39623.292    2472.7549   -42096.047     577.1925 
  199650    213.54664   -156.44389     122074.7   -39629.615    2517.5235   -42147.138    577.66765 
  199700    210.87247    86.888132    122099.47   -39601.006    2485.9974   -42087.004    577.50834 
  199750    213.14345   -146.72791    122076.71   -39547.067    2512.7703   -42059.837    577.40951 
  199800    215.40267   -26.799151    122023.21   -39538.085    2539.4044   -42077.489    577.02111 
  199850    213.60273   -4.9504773    122120.82   -39523.138    2518.1847   -42041.323    577.69637 
  199900     212.0994     87.13025    122162.49   -39538.774    2500.4618   -42039.236    577.74348 
  199950    212.05431   -99.503654    122106.05   -39559.783    2499.9302   -42059.713    578.10953 
  200000    210.61284     112.3717    122050.08   -39577.884    2482.9367   -42060.821    577.51547 
Loop time of 403.227 on 12 procs for 200000 steps with 3956 atoms

Performance: 214.271 ns/day, 0.112 hours/ns, 495.999 timesteps/s
96.5% CPU use with 12 MPI tasks x no OpenMP threads

MPI task timing breakdown:
Section |  min time  |  avg time  |  max time  |%varavg| %total
---------------------------------------------------------------
Pair    | 260.86     | 285.36     | 297.33     |  85.6 | 70.77
Neigh   | 7.2374     | 7.7744     | 8.0866     |  11.4 |  1.93
Comm    | 69.092     | 81.809     | 106.7      | 163.3 | 20.29
Output  | 0.22648    | 0.26011    | 0.52638    |  15.8 |  0.06
Modify  | 23.922     | 24.464     | 25.086     |   8.3 |  6.07
Other   |            | 3.555      |            |       |  0.88

Nlocal:    329.667 ave 343 max 308 min
Histogram: 2 1 1 0 0 0 0 2 3 3
Nghost:    976.167 ave 991 max 950 min
Histogram: 2 1 0 0 0 0 1 2 2 4
Neighs:    0 ave 0 max 0 min
Histogram: 12 0 0 0 0 0 0 0 0 0
FullNghs:  10816 ave 11442 max 9969 min
Histogram: 3 0 1 0 0 0 1 4 0 3

Total # of neighbors = 129792
Ave neighs/atom = 32.8089
Neighbor list builds = 11775
Dangerous builds = 0

write_data		${DIR}/data.eq-${NAME}-${TEMP}
write_data		1nm/run_1/data.eq-${NAME}-${TEMP}
write_data		1nm/run_1/data.eq-1nm_bubble_1-${TEMP}
write_data		1nm/run_1/data.eq-1nm_bubble_1-215
undump          1

reset_timestep  0

unfix           2
unfix           3
unfix           4


################################################
#######         Run Simulation         #########
################################################

log				${DIR}/log.run_${NAME}
log				1nm/run_1/log.run_${NAME}
log				1nm/run_1/log.run_1nm_bubble_1
