
### Dimensions ###


### IMPORT ATOMS ###
read_data ../Box_Setup/data.Ibeam_240K
  orthogonal box = (0 0 0) to (157.504 36.4877 39.8503)
  10 by 4 by 4 MPI processor grid
  reading atoms ...
  8943 atoms
  reading velocities ...
  8943 velocities
group water type 2
2223 atoms in group water
group graphite type 1
6720 atoms in group graphite


# Define potential
#
pair_style          sw
pair_coeff * * MLC_e.sw C mW

# Add velocity/set timestep
#

fix		1 graphite setforce 0.0 0.0 0.0
velocity 	graphite set 0.0 0.0 0.0
velocity            water create ${START_TEMP} ${SEED} rot yes dist gaussian
velocity            water create 240 ${SEED} rot yes dist gaussian
velocity            water create 240 22818 rot yes dist gaussian
timestep            5.0

# Define output
#
compute 1 water msd
compute 2 water temp


thermo	            100
thermo_style custom step c_2 press vol etotal ke pe c_1[4] density

# Neighbor lists
#
neigh_modify        delay 0 every 1 check yes


# Set fixes
#
fix                 2 water momentum 10 linear 1 1 1 rescale
fix                 3 all nve
fix                 4 water temp/csvr ${START_TEMP} ${START_TEMP} 500.0 928347
fix                 4 water temp/csvr 240 ${START_TEMP} 500.0 928347
fix                 4 water temp/csvr 240 240 500.0 928347

# Run 0.05 ns equilibration
#
dump                1 all custom 100 ${DIR}/eq.${NAME}.dump id type x y z vx vy vz
dump                1 all custom 100 run_19/eq.${NAME}.dump id type x y z vx vy vz
dump                1 all custom 100 run_19/eq.ibeam_cooling_19.dump id type x y z vx vy vz
run                 10000
Neighbor list info ...
  update every 1 steps, delay 0 steps, check yes
  max neighbors/atom: 2000, page size: 100000
  master list distance cutoff = 6.67472
  ghost atom cutoff = 6.67472
  binsize = 3.33736, bins = 48 11 12
  1 neighbor lists, perpetual/occasional/extra = 1 0 0
  (1) pair sw, perpetual
      attributes: full, newton on
      pair build: full/bin/atomonly
      stencil: full/bin/3d
      bin: standard
Per MPI rank memory allocation (min/avg/max) = 0.463 | 3.758 | 4.742 Mbytes
Step c_2 Press Volume TotEng KinEng PotEng c_1[4] Density 
       0          240   -163.35224    229018.04   -21211.582    1589.6064   -22801.188            0   0.87555383 
     100    242.65453   -172.27224    229018.04    -21189.41    1607.1883   -22796.598   0.90877615   0.87555383 
     200    235.10685   -369.54461    229018.04   -21233.897    1557.1973   -22791.094    1.3298587   0.87555383 
     300    239.55685   -261.41771    229018.04   -21205.113    1586.6713   -22791.784    1.7374591   0.87555383 
     400    243.31737   -382.70504    229018.04   -21217.188    1611.5785   -22828.767     1.985799   0.87555383 
     500    237.58819   -515.13733    229018.04    -21212.14    1573.6321   -22785.772     2.344369   0.87555383 
     600     236.4836    -188.7214    229018.04    -21315.18     1566.316   -22881.496    2.6406171   0.87555383 
     700    242.69992   -135.10641    229018.04   -21288.989    1607.4889   -22896.478    3.0392914   0.87555383 
     800    234.32761   -215.37051    229018.04   -21328.762    1552.0361   -22880.798    3.4178667   0.87555383 
     900     231.5541   -362.79881    229018.04   -21275.787    1533.6661   -22809.454      3.73655   0.87555383 
    1000    234.28646   -431.36565    229018.04   -21215.185    1551.7635   -22766.948    4.1922393   0.87555383 
    1100    238.95639   -358.10604    229018.04   -21235.843    1582.6942   -22818.538    4.5012295   0.87555383 
    1200    235.75591   -375.78884    229018.04   -21283.253    1561.4963   -22844.749    4.9896822   0.87555383 
    1300    236.29303    -246.8627    229018.04   -21234.629    1565.0538   -22799.683    5.4204829   0.87555383 
    1400    246.07873   -178.81284    229018.04   -21160.233     1629.868   -22790.101    5.7877303   0.87555383 
    1500    245.81196   -365.11435    229018.04   -21167.877    1628.1011   -22795.979    6.1409756   0.87555383 
    1600    247.33003   -126.06889    229018.04   -21147.089    1638.1558   -22785.245    6.6057258   0.87555383 
    1700    241.45667    -154.3749    229018.04   -21168.696    1599.2544    -22767.95    7.0387738   0.87555383 
    1800    238.67237    -321.9123    229018.04   -21177.855     1580.813   -22758.668    7.4815889   0.87555383 
    1900    252.64373   -176.21966    229018.04   -21113.755    1673.3504   -22787.105    8.0527894   0.87555383 
    2000    246.83869   -313.64944    229018.04   -21097.127    1634.9015   -22732.028    8.6194693   0.87555383 
    2100    236.97572   -290.44369    229018.04   -21107.216    1569.5755   -22676.791    9.0477451   0.87555383 
    2200    245.45028   -356.45975    229018.04    -21098.55    1625.7056   -22724.256    9.2541442   0.87555383 
    2300    242.65521   -223.25567    229018.04   -21144.336    1607.1928   -22751.529    9.6419468   0.87555383 
    2400    243.25298   -198.34881    229018.04   -21152.618     1611.152    -22763.77    9.9861364   0.87555383 
    2500    240.73997   -141.77696    229018.04   -21155.393    1594.5075     -22749.9    10.267612   0.87555383 
    2600    244.19977   -351.72931    229018.04   -21189.892     1617.423   -22807.314    10.378624   0.87555383 
    2700    241.31666   -309.31112    229018.04   -21153.118    1598.3271   -22751.445    10.809854   0.87555383 
    2800    239.64336   -329.56295    229018.04    -21151.83    1587.2442   -22739.074    11.028864   0.87555383 
    2900    238.41615   -142.89876    229018.04   -21219.755    1579.1159    -22798.87    11.278699   0.87555383 
    3000    237.93026   -134.05907    229018.04    -21245.14    1575.8978   -22821.038    11.663366   0.87555383 
    3100    238.07886   -348.72424    229018.04   -21232.706     1576.882   -22809.588    12.033998   0.87555383 
    3200    231.89006   -323.82214    229018.04    -21245.33    1535.8913   -22781.221    12.371131   0.87555383 
    3300    241.45358   -198.87939    229018.04    -21203.74     1599.234   -22802.974    12.879216   0.87555383 
    3400    244.93536   -244.53698    229018.04   -21204.683     1622.295   -22826.978    13.262611   0.87555383 
    3500    233.81492   -296.48131    229018.04   -21205.383    1548.6404   -22754.024    13.566868   0.87555383 
    3600     239.5935   -304.65807    229018.04   -21189.327     1586.914   -22776.241     14.07203   0.87555383 
    3700     233.1135   -429.00587    229018.04   -21192.131    1543.9946   -22736.125    14.564423   0.87555383 
    3800    241.35692   -390.56132    229018.04   -21187.272    1598.5938   -22785.866     15.00731   0.87555383 
    3900    240.26022   -325.90723    229018.04     -21179.9    1591.3299    -22771.23    15.374565   0.87555383 
    4000    240.85369   -328.21587    229018.04   -21211.111    1595.2607   -22806.372    15.568855   0.87555383 
    4100    243.79516   -325.74625    229018.04   -21169.411    1614.7431   -22784.154    16.022056   0.87555383 
    4200    244.21951   -53.294309    229018.04   -21147.164    1617.5537   -22764.717    16.299211   0.87555383 
    4300    247.18239   -431.10331    229018.04   -21066.919    1637.1779   -22704.097    16.649872   0.87555383 
    4400    243.15746   -297.20556    229018.04   -21059.123    1610.5194   -22669.642    17.008931   0.87555383 
    4500    239.39657   -353.44412    229018.04   -21120.166    1585.6096   -22705.775    17.296693   0.87555383 
    4600    240.40311   -430.95477    229018.04   -21138.324    1592.2763     -22730.6    17.634612   0.87555383 
    4700    235.43251   -234.06216    229018.04   -21192.811    1559.3542   -22752.166    18.222607   0.87555383 
    4800    242.29587   -241.43874    229018.04   -21174.658    1604.8127   -22779.471    18.650961   0.87555383 
    4900    247.49309   -67.978163    229018.04    -21202.63    1639.2358   -22841.866    19.198243   0.87555383 
    5000    242.48929    -132.0115    229018.04   -21249.226    1606.0939    -22855.32    19.709718   0.87555383 
    5100    234.96497   -373.90845    229018.04   -21264.935    1556.2576   -22821.193    19.862416   0.87555383 
    5200    237.51859   -210.24654    229018.04   -21223.074    1573.1711   -22796.245      20.1481   0.87555383 
    5300    238.09932   -152.16973    229018.04   -21271.872    1577.0175    -22848.89    20.301354   0.87555383 
    5400    240.75433   -158.72312    229018.04   -21235.751    1594.6026   -22830.353    20.443689   0.87555383 
    5500    232.11759   -339.88395    229018.04   -21269.229    1537.3983   -22806.628    20.502853   0.87555383 
    5600    237.59654   -284.38714    229018.04   -21296.549    1573.6874   -22870.236    20.619515   0.87555383 
    5700    232.53103   -338.29603    229018.04   -21261.658    1540.1367   -22801.795    20.680222   0.87555383 
    5800    239.55038   -322.14793    229018.04   -21177.374    1586.6284   -22764.002    20.958144   0.87555383 
    5900    239.43469   -189.26853    229018.04   -21204.259    1585.8621   -22790.121    21.320199   0.87555383 
    6000    230.78555    -318.5951    229018.04   -21278.886    1528.5757   -22807.461    21.505387   0.87555383 
    6100    237.30032   -258.34944    229018.04   -21252.499    1571.7254   -22824.225    22.279207   0.87555383 
    6200    238.94705   -243.67914    229018.04   -21218.354    1582.6323   -22800.987    22.525218   0.87555383 
    6300    242.01032   -284.06783    229018.04    -21159.23    1602.9214   -22762.152    23.176301   0.87555383 
    6400    240.24659   -414.78716    229018.04   -21151.788    1591.2396   -22743.028    23.454001   0.87555383 
    6500    239.89955   -297.80235    229018.04   -21175.175    1588.9411   -22764.116    23.848193   0.87555383 
    6600    237.92485   -332.95104    229018.04   -21226.259    1575.8619   -22802.121    24.652598   0.87555383 
    6700    233.17531   -357.23274    229018.04   -21274.651     1544.404   -22819.055    25.139053   0.87555383 
    6800    242.65744    -122.0851    229018.04   -21243.431    1607.2075   -22850.638    25.637011   0.87555383 
    6900    231.43069    -276.2042    229018.04    -21291.67    1532.8488   -22824.519    26.230607   0.87555383 
    7000    228.77566   -228.39962    229018.04   -21302.018    1515.2635   -22817.281     26.16268   0.87555383 
    7100    237.40291   -243.43287    229018.04   -21212.258    1572.4049   -22784.663    26.119371   0.87555383 
    7200     242.4631    -225.5476    229018.04   -21208.909    1605.9203   -22814.829    26.437386   0.87555383 
    7300    235.80188   -416.61478    229018.04   -21281.555    1561.8007   -22843.356    26.550449   0.87555383 
    7400    231.50169   -359.39418    229018.04   -21277.296     1533.319   -22810.615    26.879949   0.87555383 
    7500    240.35688   -268.48195    229018.04    -21308.24    1591.9701   -22900.211    27.039343   0.87555383 
    7600    235.69611   -221.42707    229018.04   -21325.712    1561.1002   -22886.812    27.195976   0.87555383 
    7700    239.63695   -249.64146    229018.04   -21281.189    1587.2018   -22868.391     27.57445   0.87555383 
    7800    241.12195   -310.75555    229018.04   -21226.249    1597.0375   -22823.286    27.707659   0.87555383 
    7900    241.76101   -456.27084    229018.04   -21190.861    1601.2702   -22792.132    28.224578   0.87555383 
    8000    244.62528   -165.72136    229018.04   -21193.574    1620.2413   -22813.815    28.578495   0.87555383 
    8100    242.22052   -289.61124    229018.04   -21224.874    1604.3137   -22829.188    29.248807   0.87555383 
    8200    241.00046   -286.34841    229018.04   -21260.118    1596.2328   -22856.351    29.741346   0.87555383 
    8300    235.91036   -330.61339    229018.04   -21274.945    1562.5192   -22837.464    29.945779   0.87555383 
    8400    234.07517   -226.44695    229018.04   -21282.358    1550.3641   -22832.722    30.173445   0.87555383 
    8500    233.68624   -277.59724    229018.04   -21270.761    1547.7881    -22818.55    29.878006   0.87555383 
    8600    241.17857   -209.48579    229018.04   -21212.365    1597.4125   -22809.777    29.917523   0.87555383 
    8700    228.49755   -208.10832    229018.04    -21276.69    1513.4215   -22790.111    30.137315   0.87555383 
    8800    237.43418   -285.98865    229018.04   -21212.226    1572.6121   -22784.838    30.646498   0.87555383 
    8900    235.45717   -259.09279    229018.04   -21243.543    1559.5176   -22803.061    30.830738   0.87555383 
    9000    239.09931   -374.53375    229018.04   -21184.914    1583.6408   -22768.555    31.175466   0.87555383 
    9100    240.47302   -300.14497    229018.04   -21172.227    1592.7394   -22764.966    31.283534   0.87555383 
    9200    239.97778   -244.81136    229018.04   -21217.004    1589.4592   -22806.463    31.671236   0.87555383 
    9300    236.02808   -315.89357    229018.04   -21243.215    1563.2989   -22806.514    32.155098   0.87555383 
    9400    238.58001   -264.94541    229018.04   -21277.676    1580.2013   -22857.877    32.291174   0.87555383 
    9500    237.52693   -359.89043    229018.04   -21237.351    1573.2263   -22810.577    32.171651   0.87555383 
    9600    236.12989   -204.48684    229018.04   -21311.826    1563.9732   -22875.799    32.221268   0.87555383 
    9700    235.15265   -75.548786    229018.04   -21265.155    1557.5007   -22822.656    32.487793   0.87555383 
    9800    234.95525   -118.14967    229018.04   -21264.317    1556.1932    -22820.51    32.852358   0.87555383 
    9900    239.76312   -289.34068    229018.04   -21210.258    1588.0375   -22798.295    33.176459   0.87555383 
   10000    243.79895   -359.04464    229018.04   -21140.883    1614.7682   -22755.651    33.374044   0.87555383 
Loop time of 14.6713 on 160 procs for 10000 steps with 8943 atoms

Performance: 294.452 ns/day, 0.082 hours/ns, 681.602 timesteps/s
97.8% CPU use with 160 MPI tasks x no OpenMP threads

MPI task timing breakdown:
Section |  min time  |  avg time  |  max time  |%varavg| %total
---------------------------------------------------------------
Pair    | 0.0004313  | 3.0567     | 12.184     | 236.3 | 20.83
Neigh   | 0.0003593  | 0.10041    | 0.3827     |  39.0 |  0.68
Comm    | 0.016504   | 4.0227     | 11.803     | 217.5 | 27.42
Output  | 0.17556    | 0.17574    | 0.18246    |   0.1 |  1.20
Modify  | 0.34225    | 7.1651     | 14.341     | 228.5 | 48.84
Other   |            | 0.1507     |            |       |  1.03

Nlocal:    55.8937 ave 177 max 0 min
Histogram: 72 1 47 0 0 0 0 0 4 36
Nghost:    541.05 ave 961 max 0 min
Histogram: 24 0 0 8 6 52 20 18 20 12
Neighs:    0 ave 0 max 0 min
Histogram: 160 0 0 0 0 0 0 0 0 0
FullNghs:  5626.69 ave 22122 max 0 min
Histogram: 90 30 0 0 0 0 0 2 18 20

Total # of neighbors = 900270
Ave neighs/atom = 100.668
Neighbor list builds = 571
Dangerous builds = 0
write_data 	    ${DIR}/data.${NAME}_eq
write_data 	    run_19/data.${NAME}_eq
write_data 	    run_19/data.ibeam_cooling_19_eq

undump              1
unfix               4



################################################
#######         Run Simulation         #########
################################################

reset_timestep      0
timestep	    10.0
log                 ${DIR}/log.run_${NAME}
log                 run_19/log.run_${NAME}
log                 run_19/log.run_ibeam_cooling_19
