
### Dimensions ###


### IMPORT ATOMS ###
read_data ../Box_Setup/data.Ibeam_240K
  orthogonal box = (0 0 0) to (189.989 26.9999 39.8504)
  15 by 2 by 4 MPI processor grid
  reading atoms ...
  8482 atoms
  reading velocities ...
  8482 velocities
group water type 2
2436 atoms in group water
group graphite type 1
6046 atoms in group graphite


# Define potential
#
pair_style          sw
pair_coeff * * MLC_e.sw C mW

# Add velocity/set timestep
#

fix		1 graphite setforce 0.0 0.0 0.0
velocity 	graphite set 0.0 0.0 0.0
velocity            water create ${START_TEMP} ${SEED} rot yes dist gaussian
velocity            water create 240 ${SEED} rot yes dist gaussian
velocity            water create 240 13725 rot yes dist gaussian
timestep            5.0

# Define output
#
compute 1 water msd
compute 2 water temp


thermo	            100
thermo_style custom step c_2 press vol etotal ke pe c_1[4] density

# Neighbor lists
#
neigh_modify        delay 0 every 1 check yes


# Set fixes
#
fix                 2 water momentum 10 linear 1 1 1 rescale
fix                 3 all nve
fix                 4 water temp/csvr ${START_TEMP} ${START_TEMP} 500.0 928347
fix                 4 water temp/csvr 240 ${START_TEMP} 500.0 928347
fix                 4 water temp/csvr 240 240 500.0 928347

# Run 0.05 ns equilibration
#
dump                1 all custom 100 ${DIR}/eq.${NAME}.dump id type x y z vx vy vz
dump                1 all custom 100 run_28/eq.${NAME}.dump id type x y z vx vy vz
dump                1 all custom 100 run_28/eq.ibeam_cooling_28.dump id type x y z vx vy vz
run                 10000
Neighbor list info ...
  update every 1 steps, delay 0 steps, check yes
  max neighbors/atom: 2000, page size: 100000
  master list distance cutoff = 6.67472
  ghost atom cutoff = 6.67472
  binsize = 3.33736, bins = 57 9 12
  1 neighbor lists, perpetual/occasional/extra = 1 0 0
  (1) pair sw, perpetual
      attributes: full, newton on
      pair build: full/bin/atomonly
      stencil: full/bin/3d
      bin: standard
Per MPI rank memory allocation (min/avg/max) = 0.4705 | 3.837 | 4.747 Mbytes
Step c_2 Press Volume TotEng KinEng PotEng c_1[4] Density 
       0          240   -262.64038    204420.41   -23347.773    1741.9854   -25089.758            0   0.94632332 
     100    238.96395   -120.14415    204420.41   -23354.695    1734.4654    -25089.16   0.82955849   0.94632332 
     200    230.91132    -227.2821    204420.41   -23372.501    1676.0173   -25048.519    1.2610708   0.94632332 
     300    236.18334   -233.91528    204420.41   -23364.067     1714.283    -25078.35    1.6728997   0.94632332 
     400    238.41593   -363.99322    204420.41   -23361.987    1730.4878   -25092.475    2.0005674   0.94632332 
     500    239.84675   -370.72475    204420.41   -23328.263    1740.8731   -25069.136     2.327379   0.94632332 
     600    247.87962   -264.31116    204420.41   -23257.774    1799.1778   -25056.952    2.6410976   0.94632332 
     700    240.83121   -264.94192    204420.41   -23262.101    1748.0185    -25010.12    2.9684125   0.94632332 
     800     244.1293   -311.31453    204420.41   -23241.322     1771.957   -25013.279    3.4162016   0.94632332 
     900    239.00128   -611.80236    204420.41   -23275.187    1734.7364   -25009.924    3.9575879   0.94632332 
    1000    243.94916   -277.77895    204420.41   -23306.677    1770.6495   -25077.327    4.4066176   0.94632332 
    1100      239.798   -327.34589    204420.41   -23291.932    1740.5192   -25032.451    4.8352689   0.94632332 
    1200    242.20544   -375.26237    204420.41   -23300.909    1757.9931   -25058.902    5.4187827   0.94632332 
    1300    246.04006    -263.0083    204420.41   -23262.262    1785.8258   -25048.088    5.9654934   0.94632332 
    1400    245.85596   -189.00854    204420.41   -23310.366    1784.4896   -25094.855    6.3573195   0.94632332 
    1500    234.57742   -324.65842    204420.41   -23352.732    1702.6268   -25055.359    6.6456501   0.94632332 
    1600    240.99499   -349.72849    204420.41   -23335.947    1749.2073   -25085.154    7.0734724   0.94632332 
    1700     236.6491   -451.72211    204420.41   -23358.348    1717.6636   -25076.012    7.4525954   0.94632332 
    1800    244.46243   -240.42266    204420.41   -23327.488    1774.3749   -25101.863    7.7368968   0.94632332 
    1900    249.03571   -419.64824    204420.41   -23297.513     1807.569   -25105.082    7.9979747   0.94632332 
    2000    250.54325    -362.6217    204420.41   -23283.734    1818.5112   -25102.246    8.3765193   0.94632332 
    2100    237.01191   -285.43075    204420.41   -23411.266     1720.297   -25131.563    8.6636672   0.94632332 
    2200    239.09597   -499.90772    204420.41   -23386.761    1735.4237   -25122.185    8.9815666   0.94632332 
    2300    237.40237   -286.74351    204420.41   -23365.731    1723.1311   -25088.862    9.3633073   0.94632332 
    2400    245.66957   -406.70775    204420.41   -23364.132    1783.1367   -25147.269    9.8001407   0.94632332 
    2500    236.99829   -293.62244    204420.41   -23373.756    1720.1982   -25093.954    10.241916   0.94632332 
    2600    239.17234    -302.3319    204420.41   -23390.748     1735.978   -25126.726    10.390272   0.94632332 
    2700     240.0681   -83.784406    204420.41   -23378.578    1742.4797   -25121.058    10.652667   0.94632332 
    2800    240.25247   -197.37203    204420.41   -23317.392    1743.8179    -25061.21    10.828625   0.94632332 
    2900    242.96339   -398.36557    204420.41   -23321.988    1763.4945   -25085.483    11.062854   0.94632332 
    3000    240.95835   -377.39264    204420.41   -23305.907    1748.9414   -25054.849    11.474858   0.94632332 
    3100    243.26304   -391.32931    204420.41   -23297.826    1765.6694   -25063.495    11.719382   0.94632332 
    3200    237.70511   -296.65805    204420.41   -23361.638    1725.3285   -25086.966    11.835563   0.94632332 
    3300    235.94508   -286.68755    204420.41   -23440.494    1712.5537   -25153.048    11.806912   0.94632332 
    3400    238.81181   -241.65208    204420.41   -23390.476    1733.3612   -25123.837    11.947643   0.94632332 
    3500    236.24037   -348.62809    204420.41   -23399.896     1714.697   -25114.593     12.05174   0.94632332 
    3600    238.46686   -359.23722    204420.41   -23396.902    1730.8574    -25127.76    12.198447   0.94632332 
    3700    240.15814   -228.86823    204420.41   -23360.483    1743.1332   -25103.616    12.420001   0.94632332 
    3800    239.90213   -381.89455    204420.41   -23334.642     1741.275   -25075.917    12.679234   0.94632332 
    3900    236.41798   -320.87607    204420.41   -23330.167    1715.9861   -25046.153    12.977894   0.94632332 
    4000    234.56921   -411.37727    204420.41   -23356.292    1702.5672   -25058.859    13.230357   0.94632332 
    4100    241.85151   -238.67688    204420.41   -23341.855    1755.4241   -25097.279    13.491698   0.94632332 
    4200    245.14275   -216.71704    204420.41   -23319.558    1779.3129   -25098.871    13.846393   0.94632332 
    4300     239.8346   -323.02587    204420.41    -23382.02    1740.7849   -25122.804    14.249428   0.94632332 
    4400    232.76486   -353.18902    204420.41   -23327.962    1689.4708   -25017.433    14.616706   0.94632332 
    4500    236.29813   -368.84988    204420.41   -23332.025    1715.1162   -25047.141    15.114664   0.94632332 
    4600     238.3947   -382.81394    204420.41   -23371.074    1730.3337   -25101.408    15.196182   0.94632332 
    4700    236.84632   -229.73268    204420.41   -23295.777    1719.0952   -25014.872    15.796754   0.94632332 
    4800    248.16752   -207.81898    204420.41   -23265.675    1801.2674   -25066.942    16.040261   0.94632332 
    4900    239.24818    -297.8637    204420.41   -23223.022    1736.5285    -24959.55    16.404823   0.94632332 
    5000    235.07144   -372.26703    204420.41   -23289.388    1706.2126   -24995.601    16.883566   0.94632332 
    5100    247.68043   -267.53601    204420.41   -23250.607     1797.732   -25048.339    17.429561   0.94632332 
    5200    235.60697   -464.85541    204420.41    -23289.96    1710.0996   -25000.059    17.926401   0.94632332 
    5300       235.78   -306.67761    204420.41   -23338.972    1711.3555   -25050.328    18.221288   0.94632332 
    5400    240.90726   -512.66895    204420.41   -23321.902    1748.5705   -25070.472      18.4293   0.94632332 
    5500    229.19368   -481.43465    204420.41   -23323.621    1663.5502   -24987.171    18.932699   0.94632332 
    5600    240.88719   -287.61523    204420.41   -23329.367    1748.4249   -25077.792    19.410496   0.94632332 
    5700    240.85058   -209.25477    204420.41   -23302.078    1748.1591   -25050.237    19.670424   0.94632332 
    5800    243.44399   -173.45752    204420.41    -23291.59    1766.9828   -25058.573    19.935285   0.94632332 
    5900    240.67861   -261.81876    204420.41   -23318.674    1746.9109   -25065.584    20.282753   0.94632332 
    6000    236.75245   -284.75957    204420.41   -23330.064    1718.4138   -25048.478    20.506739   0.94632332 
    6100    238.99765   -240.47512    204420.41   -23354.517    1734.7101   -25089.227    20.799623   0.94632332 
    6200    240.06455   -233.35187    204420.41   -23377.112    1742.4539   -25119.566    21.172814   0.94632332 
    6300    240.81697    -406.1035    204420.41   -23305.935    1747.9152    -25053.85    21.661394   0.94632332 
    6400    238.32572   -332.78436    204420.41    -23335.34     1729.833   -25065.173    22.114189   0.94632332 
    6500    236.83219   -337.70277    204420.41   -23334.646    1718.9926   -25053.639      22.5156   0.94632332 
    6600    234.66523   -404.14384    204420.41   -23326.174    1703.2642   -25029.438    22.925987   0.94632332 
    6700    234.10391   -366.69708    204420.41   -23351.423      1699.19   -25050.613     23.28975   0.94632332 
    6800    239.05148   -400.32684    204420.41   -23323.225    1735.1008   -25058.325    23.670837   0.94632332 
    6900    237.25924     -296.509    204420.41   -23273.774    1722.0922   -24995.866    23.898464   0.94632332 
    7000      239.828     -340.796    204420.41   -23273.586     1740.737   -25014.323     24.12887   0.94632332 
    7100    248.92568   -548.48632    204420.41   -23287.222    1806.7704   -25093.993    24.486962   0.94632332 
    7200    234.17407    -458.0129    204420.41    -23347.99    1699.6992   -25047.689    25.204884   0.94632332 
    7300    231.50214   -446.99289    204420.41   -23371.334    1680.3056    -25051.64    25.769758   0.94632332 
    7400    238.00531   -308.28693    204420.41    -23340.37    1727.5074   -25067.878     25.60267   0.94632332 
    7500    234.74209   -137.83204    204420.41   -23309.431     1703.822   -25013.253    25.866898   0.94632332 
    7600     245.1846   -190.05821    204420.41   -23267.417    1779.6167   -25047.034    26.028624   0.94632332 
    7700    237.28334   -336.77386    204420.41   -23276.131    1722.2672   -24998.398    26.117809   0.94632332 
    7800    232.61767   -360.09743    204420.41   -23326.718    1688.4024   -25015.121    26.528093   0.94632332 
    7900    238.26811   -467.87514    204420.41   -23289.515    1729.4149    -25018.93    27.023519   0.94632332 
    8000    240.88842   -401.18031    204420.41   -23213.377    1748.4338   -24961.811     27.30449   0.94632332 
    8100    246.71245   -288.43875    204420.41    -23188.47    1790.7062   -24979.176    27.507634   0.94632332 
    8200    241.78081     -292.803    204420.41   -23221.266     1754.911   -24976.177    27.753942   0.94632332 
    8300    244.47754   -184.86163    204420.41   -23188.895    1774.4846   -24963.379     28.11668   0.94632332 
    8400      242.716   -271.64103    204420.41   -23180.737    1761.6989   -24942.436    28.847654   0.94632332 
    8500    242.15754   -360.15888    204420.41   -23217.386    1757.6454   -24975.031    29.324312   0.94632332 
    8600    236.11754   -418.36067    204420.41   -23219.192    1713.8054   -24932.997    29.817454   0.94632332 
    8700    236.34604   -495.75075    204420.41   -23220.603     1715.464   -24936.067     30.15528   0.94632332 
    8800    231.90066   -501.32062    204420.41   -23211.634    1683.1982   -24894.833     30.90311   0.94632332 
    8900    239.74251   -321.74366    204420.41   -23247.126    1740.1164   -24987.243    31.824695   0.94632332 
    9000     240.4667   -258.47079    204420.41   -23217.145    1745.3729   -24962.518    32.260229   0.94632332 
    9100    240.91142   -440.71087    204420.41   -23222.763    1748.6007   -24971.364     32.53333   0.94632332 
    9200    243.95692   -442.41876    204420.41   -23175.527    1770.7058   -24946.233    33.134833   0.94632332 
    9300    238.73407     -365.572    204420.41   -23261.703    1732.7969     -24994.5    33.642704   0.94632332 
    9400    236.31529   -404.05435    204420.41   -23244.359    1715.2407     -24959.6     34.18628   0.94632332 
    9500    240.59949   -238.21051    204420.41   -23276.934    1746.3367    -25023.27    34.426159   0.94632332 
    9600    237.07346   -409.11355    204420.41   -23290.779    1720.7438   -25011.523    34.603241   0.94632332 
    9700    239.83885   -376.19419    204420.41   -23263.139    1740.8157   -25003.955    35.321511   0.94632332 
    9800    238.07091   -395.91102    204420.41   -23196.638    1727.9835   -24924.622    35.525053   0.94632332 
    9900    237.54879   -561.42992    204420.41   -23230.182    1724.1938   -24954.376    35.744703   0.94632332 
   10000    240.73584   -282.33994    204420.41   -23240.671    1747.3263   -24987.997    36.325317   0.94632332 
Loop time of 17.3514 on 120 procs for 10000 steps with 8482 atoms

Performance: 248.971 ns/day, 0.096 hours/ns, 576.322 timesteps/s
98.0% CPU use with 120 MPI tasks x no OpenMP threads

MPI task timing breakdown:
Section |  min time  |  avg time  |  max time  |%varavg| %total
---------------------------------------------------------------
Pair    | 0.00045681 | 4.3958     | 14.212     | 250.6 | 25.33
Neigh   | 0.00036311 | 0.12516    | 0.46097    |  41.0 |  0.72
Comm    | 0.012676   | 4.6216     | 13.211     | 234.8 | 26.64
Output  | 0.17994    | 0.18017    | 0.19114    |   0.2 |  1.04
Modify  | 0.58016    | 7.7048     | 16.941     | 259.2 | 44.40
Other   |            | 0.3239     |            |       |  1.87

Nlocal:    70.6833 ave 226 max 0 min
Histogram: 48 2 40 0 0 0 0 0 12 18
Nghost:    610.333 ave 1005 max 0 min
Histogram: 12 4 0 4 1 34 20 11 21 13
Neighs:    0 ave 0 max 0 min
Histogram: 120 0 0 0 0 0 0 0 0 0
FullNghs:  7079.6 ave 28345 max 0 min
Histogram: 62 28 0 0 0 0 0 5 13 12

Total # of neighbors = 849552
Ave neighs/atom = 100.159
Neighbor list builds = 577
Dangerous builds = 0
write_data 	    ${DIR}/data.${NAME}_eq
write_data 	    run_28/data.${NAME}_eq
write_data 	    run_28/data.ibeam_cooling_28_eq

undump              1
unfix               4



################################################
#######         Run Simulation         #########
################################################

reset_timestep      0
timestep	    10.0
log                 ${DIR}/log.run_${NAME}
log                 run_28/log.run_${NAME}
log                 run_28/log.run_ibeam_cooling_28
