
# Set production fixes - Nose/Hoover
#
fix                 4 water temp/csvr ${START_TEMP} ${END_TEMP} 500.0 928347
fix                 4 water temp/csvr 240 ${END_TEMP} 500.0 928347
fix                 4 water temp/csvr 240 227 500.0 928347


## divide "droplet" into core and surface
#region		core_reg cylinder z 135 135 44.6 20 INF units box
#region		surface_reg cylinder z 135 135 44.6 20 INF units box side out
#group		core dynamic all region core_reg
#group		surface dynamic all region surface_reg

## compute pressure core
#compute        peratom_core core stress/atom NULL
#compute        p_core core reduce sum c_peratom_core[1] c_peratom_core[2] c_peratom_core[3]
#variable       press_core equal -(c_p_core[1]+c_p_core[2]+c_p_core[3])/(3*1249982.5)


## compute pressure surface
#compute        peratom_surf surface stress/atom NULL
#compute        p_surf surface reduce sum c_peratom_surf[1] c_peratom_surf[2] #c_peratom_surf[3]
#variable       press_surf equal -(c_p_surf[1]+c_p_surf[2]+c_p_surf[3])/(3*42395)

## compute total pressure of drop
compute        peratom water stress/atom NULL
compute        p water reduce sum c_peratom[1] c_peratom[2] c_peratom[3]
variable       press equal -(c_p[1]+c_p[2]+c_p[3])/(3*58301)


# compute order parameter
compute        3 all orientorder/atom nnn NULL cutoff 3.5

# compute center of mass of bridge
compute 	4 water com

# Run simulation
thermo_style        custom step c_2 press vol etotal ke pe v_press c_1[4] c_4[*]
thermo              200
dump		     1 water custom 400 ${DIR}/prod.${NAME}.dump id type x y z vx vy vz c_3[*] c_peratom[*]
dump		     1 water custom 400 run_28/prod.${NAME}.dump id type x y z vx vy vz c_3[*] c_peratom[*]
dump		     1 water custom 400 run_28/prod.ibeam_cooling_28.dump id type x y z vx vy vz c_3[*] c_peratom[*]
run                 ${STEPS}
run                 5200000
Neighbor list info ...
  update every 1 steps, delay 0 steps, check yes
  max neighbors/atom: 2000, page size: 100000
  master list distance cutoff = 6.67472
  ghost atom cutoff = 6.67472
  binsize = 3.33736, bins = 57 9 12
  2 neighbor lists, perpetual/occasional/extra = 1 1 0
  (1) pair sw, perpetual
      attributes: full, newton on
      pair build: full/bin/atomonly
      stencil: full/bin/3d
      bin: standard
  (2) compute orientorder/atom, occasional, copy from (1)
      attributes: full, newton on
      pair build: copy
      stencil: none
      bin: none
Per MPI rank memory allocation (min/avg/max) = 0.862 | 6.046 | 7.153 Mbytes
Step c_2 Press Volume TotEng KinEng PotEng v_press c_1[4] c_4[1] c_4[2] c_4[3] 
       0    240.73584   -282.33994    204420.41   -23240.671    1747.3263   -24987.997   -431.60447    36.325317    95.094088    14.526042    27.798484 
     200    238.35544   -331.31756    204420.41   -23297.827    1730.0487   -25027.876   -618.78363    37.639402    95.094537    14.522431    27.806955 
     400     236.9739   -356.08753    204420.41   -23307.992    1720.0211   -25028.013   -692.45866    38.333714    95.097291    14.520932    27.822767 
     600    237.51816   -452.14312    204420.41   -23209.424    1723.9715   -24933.396     -1049.11    39.443533    95.096358    14.520275    27.837752 
     800    242.58142   -442.13377    204420.41   -23173.971    1760.7221   -24934.693   -1046.0265    41.358449    95.095503    14.518367    27.842959 
    1000    242.50786   -245.52851    204420.41   -23248.945    1760.1881   -25009.133   -362.56314    42.268819    95.095795    14.521727    27.862694 
    1200    241.33483   -297.50302    204420.41   -23212.008     1751.674   -24963.682   -525.72068    44.059724    95.096417    14.524525     27.86575 
    1400     239.4071     -385.471    204420.41    -23200.57    1737.6819   -24938.252   -827.85965    45.974382    95.096572    14.526031    27.870518 
    1600    241.97143   -303.48835    204420.41   -23200.766    1756.2946   -24957.061   -569.65512    46.337283    95.095339    14.529443    27.851086 
    1800    240.57404   -159.32015    204420.41   -23183.914    1746.1519   -24930.066   -44.811145    47.530482    95.093753    14.532999    27.852798 
    2000    240.89801   -201.17755    204420.41   -23126.129    1748.5034   -24874.632   -223.23727    50.402263    95.093958    14.532569    27.836087 
    2200    232.63292   -417.59423    204420.41   -23154.025    1688.5131   -24842.538    -929.8595    51.359185    95.093111    14.534716    27.816443 
    2400    249.72525     -299.897    204420.41   -23103.518    1812.5739   -24916.092   -573.99204    53.340165    95.094182    14.535996    27.808353 
    2600    243.21134   -456.67243    204420.41   -23192.406    1765.2941     -24957.7   -1059.0858    54.618147    95.094304    14.535086    27.774476 
    2800    246.29144   -398.04519    204420.41   -23137.997    1787.6504   -24925.647   -897.94773    56.606957    95.095641    14.532499    27.779793 
    3000    243.90942   -260.57534    204420.41   -23189.817    1770.3611   -24960.178   -437.68815    57.508669    95.096289    14.531779    27.778177 
    3200    239.49724   -283.21233    204420.41   -23238.875    1738.3362   -24977.211   -486.63967    59.097518    95.098266    14.530272    27.795889 
    3400    241.64766   -232.16494    204420.41   -23220.297    1753.9446   -24974.241   -280.55744    60.620509    95.098726    14.528939    27.801167 
    3600    242.61603   -163.88343    204420.41   -23250.984    1760.9732   -25011.957   -58.254159    60.972278    95.096911    14.525824    27.794366 
    3800    239.44623    -335.1842    204420.41   -23185.887     1737.966   -24923.853    -645.5184    62.255723    95.099328    14.528012    27.795009 
    4000    239.23195   -350.46603    204420.41   -23234.049    1736.4107    -24970.46    -681.7819    63.647386     95.10239    14.529783    27.791803 
    4200    244.93073   -303.04978    204420.41   -23156.022     1777.774   -24933.796   -540.25839    64.255796    95.103009    14.531468    27.790452 
    4400    240.82124   -392.74975    204420.41    -23170.15    1747.9462   -24918.096   -844.89149    66.013162    95.102733    14.533663    27.806173 
    4600    242.44921   -316.14405    204420.41   -23268.377    1759.7624    -25028.14   -594.19106    67.514286    95.102003    14.532367    27.809128 
    4800    244.13259   -196.06935    204420.41   -23147.948    1771.9809   -24919.928   -178.35062     68.95213    95.100511    14.532181    27.820059 
    5000    234.75694   -493.16572    204420.41   -23229.347    1703.9298   -24933.277   -1217.4552    70.618771    95.100174    14.534469    27.826437 
    5200    246.07225   -438.03683    204420.41   -23210.383    1786.0595   -24996.442   -1022.6919     71.77061    95.101336    14.537682    27.822329 
    5400    236.20552   -261.16476    204420.41   -23219.398     1714.444   -24933.842   -390.62306    74.110335    95.102262    14.535786    27.839295 
    5600    240.61348   -408.59625    204420.41   -23233.868    1746.4382   -24980.306   -861.02018    75.634415     95.10163    14.537526    27.859774 
    5800     241.8719   -292.28373    204420.41    -23182.42    1755.5721   -24937.993    -520.5045    77.260218    95.100682    14.537614    27.876503 
    6000    239.89498   -316.74569    204420.41   -23253.721    1741.2231   -24994.944   -630.79767    78.798045    95.099959    14.537294    27.873235 
    6200    238.31586   -339.16117    204420.41   -23252.914    1729.7615   -24982.676    -657.2281    79.694289    95.098269    14.535061    27.845402 
    6400    237.23549   -439.31894    204420.41   -23213.599    1721.9198   -24935.519   -1013.9166    81.188501    95.096663    14.537318    27.824879 
    6600    239.94112   -371.66211    204420.41   -23192.543     1741.558   -24934.101    -808.7839     83.06035    95.095518     14.53584    27.828388 
    6800    241.98604   -317.27965    204420.41   -23233.763    1756.4006   -24990.164   -589.90673    82.946825    95.095077    14.535032     27.83457 
    7000    238.94894    -365.3814    204420.41   -23205.996    1734.3565   -24940.352   -783.45894    84.350815     95.09434    14.537236    27.849916 
    7200    229.55742   -299.83538    204420.41   -23279.391    1666.1903   -24945.581   -537.69405    85.986837    95.092728    14.538635    27.856972 
    7400    236.58288   -408.27682    204420.41   -23253.362     1717.183   -24970.545   -909.84805    86.838383    95.092971    14.536524     27.84983 
    7600    248.79156   -105.88376    204420.41   -23159.982    1805.7969   -24965.779    108.56195    88.031215    95.092123    14.535953    27.841696 
    7800    235.93329   -359.96574    204420.41     -23269.8    1712.4681   -24982.268   -741.67555    89.845259    95.092213    14.541475    27.841802 
    8000    244.70738   -304.44124    204420.41   -23125.389    1776.1529   -24901.542   -560.26334    92.062711    95.092827     14.54251    27.853782 
    8200    242.79494   -292.21147    204420.41   -23173.217    1762.2718   -24935.489   -514.18205    94.237139       95.094    14.544927    27.847264 
    8400     247.0216   -376.40908    204420.41   -23161.433    1792.9501   -24954.384   -772.00473    96.089482    95.094141    14.545144    27.844724 
    8600    241.42845   -209.35317    204420.41   -23235.302    1752.3535   -24987.656   -236.71143     97.50267    95.092708    14.545409    27.835955 
    8800    238.25817   -278.00118    204420.41   -23208.166    1729.3427   -24937.509   -417.91553     98.59378    95.091678    14.545285    27.833751 
    9000     240.9935   -525.49232    204420.41   -23164.306    1749.1965   -24913.502   -1319.2665    100.46853    95.091125    14.543842    27.844554 
    9200    249.60519   -126.81873    204420.41   -23137.981    1811.7025   -24949.683    87.798967    102.19369     95.09267    14.543496    27.861621 
    9400    238.02467    -378.4547    204420.41   -23180.884    1727.6479   -24908.532   -815.94048    103.91733     95.09306    14.542337    27.873192 
    9600    237.10709   -482.97534    204420.41   -23245.571    1720.9879   -24966.559   -1182.4569    106.38689    95.091837     14.54005    27.875093 
    9800    243.87163   -250.44462    204420.41   -23143.894    1770.0868   -24913.981   -386.18089    107.43453    95.091089    14.539113    27.901657 
   10000    239.55074   -524.13366    204420.41   -23209.507    1738.7245   -24948.231   -1341.3444    110.05031     95.09086    14.536827    27.915208 
   10200    240.70035   -345.73935    204420.41    -23144.63    1747.0687   -24891.699   -734.34422    111.77035    95.089681    14.537905    27.922752 
   10400    240.43832   -120.08886    204420.41     -23141.7    1745.1668   -24886.867    77.262296    113.80761     95.09073    14.538565     27.93738 
   10600    243.17851   -381.89648    204420.41    -23199.92    1765.0559   -24964.976    -852.4153    115.64178    95.091225    14.541015    27.947838 
   10800    231.93309   -415.88557    204420.41   -23261.608    1683.4335   -24945.041   -957.44053    117.28805    95.091116    14.541388    27.945608 
   11000    237.08686   -376.73236    204420.41   -23268.911     1720.841   -24989.752   -812.27573     119.7228    95.091723    14.543023    27.938175 
   11200     239.3465   -361.75433    204420.41   -23302.561    1737.2421   -25039.803   -751.58933    122.04171     95.09086    14.543825    27.957288 
   11400    238.49612    -260.0165    204420.41    -23265.29    1731.0698    -24996.36   -375.61159    122.99935    95.090751     14.54514    27.954731 
   11600    241.24775   -395.50691    204420.41   -23172.076    1751.0419   -24923.118   -856.64392    125.24151    95.090173    14.546432    27.949063 
   11800    243.57277   -117.02651    204420.41   -23197.824    1767.9175   -24965.741    84.367688    127.20912    95.089909    14.547779     27.95495 
   12000    244.14639   -300.39368    204420.41   -23172.865     1772.081   -24944.946   -565.80518    129.70345    95.088826       14.548    27.956252 
   12200    237.70651   -315.94645    204420.41   -23212.964    1725.3386   -24938.303   -605.29457    130.58264    95.090389    14.550416    27.971334 
   12400    243.21408   -324.40085    204420.41   -23251.259     1765.314   -25016.573   -605.11519    133.18377    95.091892    14.548513    27.982128 
   12600    243.99551    -315.1129    204420.41   -23189.175    1770.9859   -24960.161   -612.79314    135.83731     95.09107    14.546496    27.978007 
   12800    241.84898   -283.29453    204420.41   -23231.512    1755.4058   -24986.917   -487.52925    138.71863     95.08835    14.542753    27.971428 
   13000    237.49445   -389.44178    204420.41   -23262.058    1723.7994   -24985.857   -829.63546    139.19414    95.088612    14.543462     27.97129 
   13200    237.76465   -368.89417    204420.41   -23340.099    1725.7606    -25065.86   -761.26881     140.6486    95.089098    14.545713    27.951798 
   13400    230.95397   -375.56356    204420.41   -23370.067    1676.3269   -25046.394   -799.58262     141.5286    95.090443    14.547513    27.957707 
   13600    236.64773   -89.337658    204420.41    -23262.75    1717.6537   -24980.404    209.51176    141.61538    95.089787    14.545907    27.954774 
   13800     237.3598   -561.38226    204420.41    -23195.79    1722.8221   -24918.612   -1478.7747    143.77251    95.088473    14.547904    27.955078 
   14000    245.35259   -503.19744    204420.41   -23100.661    1780.8359   -24881.497   -1198.2465    143.52829     95.08765    14.548661    27.951673 
   14200    242.28564   -49.073548    204420.41   -23199.409    1758.5752   -24957.984    353.85502    144.05971    95.088205    14.547123    27.963586 
   14400    237.56572    -608.7083    204420.41   -23241.058    1724.3168   -24965.375   -1612.3078    145.05653    95.087254    14.544085    27.963977 
   14600    236.14315   -366.38361    204420.41   -23190.181    1713.9914   -24904.172   -779.28001    147.03124    95.086609    14.545493    27.946927 
   14800    240.06154   -310.06731    204420.41   -23193.969    1742.4321   -24936.401    -547.4947    149.12388    95.085572    14.546078     27.94015 
   15000    237.22418   -226.54742    204420.41   -23262.333    1721.8378    -24984.17   -305.16656    151.84788     95.08444    14.544678    27.918306 
   15200    238.70969   -355.23087    204420.41   -23216.472      1732.62   -24949.092   -732.20376    154.85134    95.086138     14.54625    27.916202 
   15400    235.90379   -408.56256    204420.41   -23249.884     1712.254   -24962.138   -905.37115    157.01313    95.086291    14.546464    27.923191 
   15600    246.97476    -122.2863    204420.41   -23128.072    1792.6101   -24920.682    92.911915    158.54755    95.086985      14.5464    27.895512 
   15800    242.43053   -461.65497    204420.41   -23185.356    1759.6268   -24944.983   -1136.0286    160.87289    95.087199    14.547851    27.887181 
   16000    235.11965   -154.50005    204420.41   -23199.682    1706.5625   -24906.245   0.97398491    163.41295    95.086324     14.54741    27.894079 
   16200    243.01113   -204.93571    204420.41   -23159.075     1763.841   -24922.916   -188.39789    164.38867    95.086459    14.546138     27.90987 
   16400    238.96397   -669.26392    204420.41   -23204.723    1734.4656   -24939.188   -1827.3075    163.46018    95.087985    14.546424    27.920614 
   16600    241.34077   -289.21462    204420.41   -23147.219     1751.717   -24898.936   -510.94253    164.22376    95.089394    14.546445    27.904727 
   16800    243.12816   -481.08495    204420.41   -23219.236    1764.6904   -24983.927   -1183.8387    164.30476    95.091173    14.546083    27.890497 
   17000    237.49688   -412.70598    204420.41   -23307.232    1723.8171    -25031.05     -911.367     164.8033    95.090697    14.545898     27.87987 
   17200    240.45195   -360.78629    204420.41   -23276.402    1745.2658   -25021.668   -730.57672    164.16222    95.091812    14.545298    27.871849 
   17400    235.72247   -460.60674    204420.41   -23310.735    1710.9379   -25021.673   -1114.0834    164.11565    95.092605    14.548881    27.881822 
   17600    240.04108   -439.55541    204420.41   -23237.697    1742.2836   -24979.981   -1020.5743     164.1576    95.093047    14.551972    27.885912 
   17800    238.46554   -262.50003    204420.41   -23265.692    1730.8478    -24996.54   -423.04658    163.47059    95.093319    14.553394    27.898546 
   18000    240.37279   -302.79176    204420.41   -23203.743    1744.6912   -24948.434   -517.20445    163.95875    95.094126    14.556589    27.902558 
   18200    242.20626   -407.88636    204420.41   -23235.143     1757.999   -24993.142   -905.57444    164.13715    95.093977    14.558191     27.89793 
   18400    239.07472   -400.74892    204420.41   -23205.636    1735.2694   -24940.905   -861.29281    164.20771    95.093449    14.556749    27.897866 
   18600    239.27011   -384.31796    204420.41   -23219.144    1736.6876   -24955.831   -841.35027     166.2493    95.092527    14.555109    27.903624 
   18800    236.66319   -332.31465    204420.41   -23277.496    1717.7659   -24995.262   -609.26096    166.74092    95.091341    14.557066    27.893681 
   19000      240.619   -303.23257    204420.41   -23219.651    1746.4783   -24966.129   -516.39654    167.72471    95.091591    14.559377    27.897188 
   19200    238.49196   -429.09415    204420.41    -23227.88    1731.0397   -24958.919   -1003.1467    168.78937     95.09309    14.559433    27.893192 
   19400    247.85951   -356.03642    204420.41   -23185.807    1799.0318   -24984.839   -715.36736    169.40729     95.09247    14.556979    27.896999 
   19600    242.33609   -258.18337    204420.41   -23201.734    1758.9414   -24960.675   -387.22646    169.97603    95.095215    14.556848    27.882112 
   19800    238.07384   -218.79957    204420.41    -23190.12    1728.0048   -24918.125   -264.15866    171.76442    95.096029    14.557625     27.87348 
   20000    242.04178    -516.7764    204420.41   -23183.557    1756.8052   -24940.362   -1282.5496    173.14319     95.09655    14.559117    27.895552 
   20200    236.05538   -439.48685    204420.41   -23259.085    1713.3543   -24972.439   -984.80443    173.38026    95.094637    14.560667    27.904097 
   20400    244.52123   -310.07458    204420.41    -23140.22    1774.8017   -24915.022   -582.65389    174.67575     95.09603    14.561803    27.918741 
   20600     233.2427   -146.89559    204420.41    -23243.18    1692.9391   -24936.119   -12.899483    175.76775    95.096687    14.564475    27.913112 
   20800    245.70289   -500.13381    204420.41   -23180.936    1783.3785   -24964.315   -1217.9452    177.38776    95.097162     14.56719    27.913417 
   21000    242.34328   -271.28707    204420.41   -23204.002    1758.9936   -24962.996   -417.10735    178.48156    95.096295    14.565411    27.895724 
   21200    240.73991   -286.23793    204420.41   -23206.621    1747.3559   -24953.977   -519.21441    179.53638    95.094807    14.564168    27.888524 
   21400    240.49889   -316.37713    204420.41   -23231.744    1745.6065   -24977.351   -640.77073     180.7614    95.093573    14.561277    27.898911 
   21600    245.85124   -390.27242    204420.41   -23146.471    1784.4553   -24930.927   -850.45009    183.28127    95.093202     14.55951    27.891663 
   21800    237.70392   -367.31228    204420.41   -23236.908    1725.3198   -24962.228   -762.61633    184.94833    95.094208    14.560679    27.902659 
   22000    235.38796   -338.45813    204420.41   -23252.648      1708.51   -24961.158   -661.34631    187.35175     95.09171    14.560911    27.913451 
   22200     231.5991   -240.14211    204420.41   -23292.454    1681.0093   -24973.463   -318.42382    188.48013    95.090442    14.564396    27.929418 
   22400    242.48883   -239.41927    204420.41   -23141.191      1760.05   -24901.241   -301.67672    190.23989    95.090348    14.566333    27.910316 
   22600    243.06398   -298.14972    204420.41   -23172.824    1764.2246   -24937.048    -534.8014    191.36741    95.090294     14.56477    27.920036 
   22800    242.30784   -461.84968    204420.41   -23149.143    1758.7363    -24907.88    -1049.793     192.8848    95.090519    14.563635    27.912301 
   23000    229.91504   -467.29053    204420.41   -23259.229     1668.786   -24928.015   -1132.9325    195.62799    95.092701    14.561565    27.922588 
   23200    238.58837   -416.87001    204420.41   -23168.689    1731.7394   -24900.429   -934.61632     198.1492    95.094698    14.561832    27.905683 
   23400    239.94435    -295.9406    204420.41   -23140.868    1741.5814   -24882.449    -495.3068    200.47621    95.096332    14.560232    27.898442 
   23600    245.42277   -460.80347    204420.41   -23065.208    1781.3453   -24846.553   -1087.0329    203.40503    95.096256     14.55713    27.876768 
   23800    245.95438   -297.85802    204420.41   -23115.378    1785.2039   -24900.581   -503.88678    206.10124    95.096488    14.553529    27.863488 
   24000    241.90299   -262.86818    204420.41   -23168.186    1755.7978   -24923.984   -404.88293    206.80205     95.09758     14.55261    27.867905 
   24200    240.60399   -361.71689    204420.41   -23129.246    1746.3693   -24875.616   -727.71607     207.9208    95.096636    14.555039    27.860428 
   24400    241.05051    -287.5285    204420.41   -23160.784    1749.6103   -24910.394   -489.58604    210.28078    95.098541    14.555084    27.853335 
   24600    235.27389   -281.78601    204420.41   -23231.128     1707.682    -24938.81   -447.26237    213.05325    95.098703    14.556058    27.867563 
   24800    241.80406   -408.95923    204420.41   -23238.701    1755.0797   -24993.781   -886.56791      213.548    95.098591    14.556969    27.863975 
   25000    239.95155   -123.05294    204420.41   -23224.973    1741.6337   -24966.607    111.45377    214.45684    95.099027    14.556939    27.870744 
   25200    226.36076   -517.97649    204420.41   -23396.619    1642.9881   -25039.607   -1299.3564    216.42575    95.099603    14.557561    27.870522 
   25400    234.84781   -421.00983    204420.41   -23282.681    1704.5894    -24987.27   -946.55442    217.47284    95.099393    14.556803    27.866065 
   25600    247.29013   -441.84594    204420.41    -23124.42    1794.8991    -24919.32   -1053.8711    219.36267      95.0987    14.554971    27.880189 
   25800    237.84527   -382.00464    204420.41   -23189.457    1726.3458   -24915.803    -819.2212    219.29342    95.097608     14.55712    27.871371 
   26000    238.17385   -204.32798    204420.41   -23226.333    1728.7307   -24955.064   -237.29662    220.87838     95.09924    14.555936    27.876606 
   26200    237.64644   -204.88923    204420.41   -23203.892    1724.9026   -24928.795   -246.96507    220.44718    95.097919    14.556155    27.879833 
   26400     236.7838   -288.14864    204420.41   -23243.066    1718.6413   -24961.707   -487.06835    220.92906    95.097434     14.55919     27.87486 
   26600    243.06711    -372.8481    204420.41    -23146.83    1764.2473   -24911.077   -765.80318    222.80772    95.099446    14.560583    27.894757 
   26800    237.10108   -273.95672    204420.41   -23169.845    1720.9442   -24890.789   -394.94673    224.34478    95.099408     14.56054    27.877949 
   27000    248.72861   -400.82068    204420.41   -23132.203      1805.34   -24937.543   -900.90429    225.21743    95.099128      14.5611    27.886756 
   27200    241.56059   -261.98479    204420.41    -23203.47    1753.3126   -24956.782   -397.70723    227.22549    95.099643     14.56483    27.890452 
   27400    241.11828   -542.45513    204420.41    -23136.66    1750.1021   -24886.762   -1383.0406    228.53467    95.100859    14.566902     27.88576 
   27600     236.3827   -338.79297    204420.41   -23312.124    1715.7301   -25027.854   -671.27256    228.57719    95.105169    14.563765    27.865875 
   27800    242.60155   -213.62221    204420.41   -23189.148    1760.8682   -24950.016   -214.62925    232.30336    95.106457    14.560149    27.864408 
   28000     235.3619   -352.69629    204420.41   -23299.989    1708.3208   -25008.309   -711.66227    234.42552    95.106019    14.559402    27.891859 
   28200    240.80212   -267.66228    204420.41   -23262.239    1747.8074   -25010.047   -432.02304    234.08137    95.106912    14.562984    27.870727 
   28400    233.52203   -451.03539    204420.41   -23244.143    1694.9665    -24939.11   -1063.4769    234.85108    95.109453    14.563862    27.852193 
   28600    238.92167   -424.80069    204420.41   -23244.244    1734.1586   -24978.403   -948.07489    235.81513    95.110694    14.562278    27.859293 
   28800    236.10793    -315.8696    204420.41   -23274.159    1713.7357   -24987.895   -625.94517    237.75862    95.111839    14.562753      27.8539 
   29000    242.37099   -221.11742    204420.41   -23222.573    1759.1947   -24981.768   -238.44211    238.54909    95.114391    14.563922    27.849634 
   29200    250.52869    -475.3559    204420.41   -23187.682    1818.4055   -25006.088   -1167.8729    241.03232    95.115884    14.565294    27.850394 
   29400    242.87702    -505.5497    204420.41   -23191.386    1762.8676   -24954.254   -1222.6933    242.01742    95.116324     14.57042      27.8453 
   29600    242.50846   -283.47052    204420.41    -23223.03    1760.1925   -24983.223   -494.42317    243.77296    95.117081    14.570907    27.846347 
   29800    236.89393   -309.34321    204420.41   -23299.705    1719.4407   -25019.146   -570.92953    246.28005     95.11571    14.571815    27.843794 
   30000     231.3197   -273.86919    204420.41   -23350.296    1678.9814   -25029.278   -432.35519    247.19016    95.116105    14.571928    27.849779 
   30200    239.17201   -334.66225    204420.41    -23244.57    1735.9756   -24980.546   -652.46279    248.01004    95.115656    14.571276    27.850689 
   30400    235.26368   -358.55812    204420.41   -23221.163    1707.6079   -24928.771    -728.5722    249.35926    95.115581    14.569488    27.861775 
   30600    240.73639   -338.01904    204420.41   -23270.619    1747.3303   -25017.949   -647.16023     251.6774    95.116626    14.572303    27.861518 
   30800    239.34271    -462.2464    204420.41   -23256.585    1737.2146     -24993.8   -1092.9414    252.92207    95.116071    14.575674    27.858799 
   31000    237.53327   -225.28579    204420.41   -23218.983    1724.0812   -24943.064   -261.79746     251.9546    95.116521    14.577615    27.852533 
   31200    236.62196   -481.15199    204420.41   -23187.224    1717.4666   -24904.691   -1191.4837    254.64959    95.118796    14.576146    27.840697 
   31400    242.83534   -396.93883    204420.41   -23160.612    1762.5651   -24923.177   -864.47242      256.754    95.119291    14.576254    27.839795 
   31600    231.64889   -398.36792    204420.41   -23214.169    1681.3707    -24895.54   -877.74199    257.94259    95.121666    14.578691    27.838922 
   31800      241.541   -203.53507    204420.41   -23146.442    1753.1704   -24899.613   -205.87242    258.61773    95.123024    14.577755    27.837357 
   32000    240.36159   -396.53191    204420.41   -23227.424    1744.6099   -24972.034   -860.18393     260.0684    95.123003    14.577449    27.830548 
   32200    232.19262    -406.1589    204420.41   -23258.628    1685.3173   -24943.945   -938.20838    260.82045    95.125096    14.581069    27.834893 
   32400    242.86922   -434.33899    204420.41   -23238.896     1762.811   -25001.707   -987.23153    262.22429    95.126276     14.58144     27.81561 
   32600    246.92305   -258.09913    204420.41   -23156.087    1792.2348   -24948.322   -402.16959    263.38675    95.125039    14.581895     27.79779 
   32800    244.47926    -496.7041    204420.41   -23169.483    1774.4971    -24943.98   -1217.9424    264.88891    95.126947    14.581072    27.799505 
   33000    236.98229   -299.98139    204420.41   -23162.179     1720.082   -24882.261   -556.80535    265.02938    95.126947    14.583527    27.796114 
   33200    236.85098   -359.90008    204420.41       -23185    1719.1289   -24904.129   -758.08585    265.90638    95.126989    14.580449     27.79689 
   33400    236.52506   -218.24319    204420.41   -23245.303    1716.7633   -24962.067   -233.55238    265.21481    95.128748    14.579169    27.795367 
   33600    237.11483   -383.18335    204420.41   -23252.724    1721.0441   -24973.768   -818.76917    267.17091    95.129227    14.578061     27.79677 
   33800    251.67706   -222.77671    204420.41   -23128.009    1826.7407   -24954.749   -287.53215    269.57327    95.132139    14.580038    27.798132 
   34000     245.4172   -148.46828    204420.41   -23265.674    1781.3049   -25046.979     13.23371    271.61617    95.132634    14.579407    27.797761 
   34200    241.67961   -383.79321    204420.41    -23261.61    1754.1765   -25015.787   -794.67239     273.0366    95.132743    14.580113    27.797084 
   34400    237.27948   -209.53142    204420.41   -23293.976    1722.2391   -25016.215    -212.5753    274.32996    95.131269    14.580111    27.784451 
   34600    238.10017   -515.07836    204420.41    -23153.36    1728.1959   -24881.556   -1285.1175    278.49406    95.130959    14.583203    27.765979 
   34800    237.92335   -275.31883    204420.41   -23256.859    1726.9125   -24983.772   -419.91561    279.21147     95.13386    14.583333    27.752613 
   35000    239.45762   -300.17987    204420.41   -23268.681    1738.0486    -25006.73   -518.09973    278.27739    95.134578    14.584731    27.748503 
   35200    238.28645   -219.07833    204420.41   -23170.181     1729.548   -24899.729   -242.49224    279.19217    95.132794    14.584899    27.747249 
   35400     240.7074   -367.93718    204420.41   -23177.296    1747.1199   -24924.416   -793.57465    282.94956    95.132841    14.590058     27.75872 
   35600    241.17553   -387.82145    204420.41   -23189.126    1750.5177   -24939.644   -887.65063    283.47448    95.132142    14.592363    27.754544 
   35800    243.94855   -273.95086    204420.41   -23078.899    1770.6451   -24849.544   -478.26157    285.50976    95.133484    14.594064    27.781407 
   36000    237.37543   -185.22017    204420.41   -23231.262    1722.9356   -24954.197   -147.98227    286.68934    95.132723     14.59656     27.76236 
   36200    236.97081   -242.18801    204420.41   -23246.191    1719.9987    -24966.19   -323.57506    289.69142    95.133162    14.595621    27.747607 
   36400     234.7379   -119.11468    204420.41   -23233.728    1703.7916    -24937.52    97.607491    292.02826    95.133497    14.594834    27.723027 
   36600    244.00119    -342.4401    204420.41   -23198.069    1771.0271   -24969.096   -688.41375    294.11169    95.133407    14.595509    27.687587 
   36800    236.41724   -336.14679    204420.41   -23293.816    1715.9808   -25009.796   -654.83908    293.41793    95.133901    14.595611    27.675291 
   37000    236.71289   -286.63136    204420.41   -23247.901    1718.1266   -24966.028   -525.87457    294.36466    95.134413    14.595158    27.668073 
   37200     237.2292   -409.03124    204420.41    -23234.76    1721.8742   -24956.634   -908.09409    297.26375    95.134763    14.594318    27.671566 
   37400    244.51845   -447.68911    204420.41   -23215.414    1774.7816   -24990.195   -1034.5066    296.31898    95.136033     14.59571    27.677821 
   37600    237.70625    -370.0656    204420.41   -23319.676    1725.3367   -25045.013   -757.46191     297.4485    95.135612    14.596138    27.692239 
   37800    230.94783    -287.6806    204420.41   -23365.302    1676.2823   -25041.584   -495.20634    297.56277    95.135906    14.598551    27.703335 
   38000     242.9062   -388.59234    204420.41    -23260.04    1763.0794    -25023.12   -819.61854    299.17063    95.136136    14.599855    27.707578 
   38200    238.66055   -335.01719    204420.41   -23288.529    1732.2633   -25020.792   -643.29519    301.92683    95.137695    14.600249    27.701144 
   38400    242.81949   -362.54265    204420.41   -23229.706      1762.45   -24992.156   -746.90651    303.10519    95.135488    14.602538    27.709587 
   38600    234.60986   -371.53089    204420.41   -23274.349    1702.8623   -24977.212    -739.3057    303.19126    95.134018    14.604279    27.711003 
   38800    234.08532   -360.01593    204420.41   -23235.179     1699.055   -24934.234   -726.82468    304.50941    95.134001    14.606068    27.707573 
   39000    242.44991   -454.98549    204420.41   -23181.964    1759.7675   -24941.732   -1076.1364    304.42916    95.133466    14.607744    27.689955 
   39200    234.23452     -171.748    204420.41   -23294.621     1700.138   -24994.758   -91.699571    304.51746    95.132426    14.606406    27.689905 
   39400    240.99305    -537.5793    204420.41   -23262.276    1749.1932   -25011.469   -1330.1747    305.72408    95.131121    14.607175    27.690412 
   39600      242.247   -319.12188    204420.41   -23203.578    1758.2947   -24961.873   -563.20789    306.95276    95.133434     14.60687    27.718335 
   39800    235.64907    -183.3224    204420.41   -23268.374    1710.4051   -24978.779   -114.22142    309.64119    95.133638    14.604608    27.704655 
   40000     241.2424   -234.99711    204420.41   -23230.935    1751.0031   -24981.938   -290.27899     311.8079    95.132612    14.603593    27.692008 
   40200    236.29428   -387.87355    204420.41   -23237.469    1715.0883   -24952.557   -808.04146    314.31369    95.133035     14.60243    27.708879 
   40400    238.50467   -283.31858    204420.41   -23268.625    1731.1319   -24999.757   -447.71737    316.85518    95.130811    14.601453    27.710479 
   40600    247.26781   -291.81932    204420.41   -23171.336    1794.7371   -24966.073   -560.10806    319.91315    95.128324    14.601625    27.713067 
   40800    237.03329   -229.19433    204420.41    -23254.03    1720.4522   -24974.482   -269.79901    321.34456    95.127183    14.601254    27.693736 
   41000    233.10247   -360.70937    204420.41   -23251.864    1691.9213   -24943.785   -713.79558    321.67781    95.127622    14.600346    27.672707 
   41200    243.92185   -423.63423    204420.41   -23169.298    1770.4513   -24939.749   -947.13958    322.69966    95.125999    14.600447    27.665098 
   41400    245.73474    -94.40007    204420.41    -23235.84    1783.6097    -25019.45    183.68049    324.58139    95.124959     14.60204    27.667161 
   41600    243.98603   -405.66464    204420.41   -23187.376    1770.9171   -24958.293   -866.20115    326.06504    95.125695    14.601266    27.665572 
   41800      239.927   -340.02375    204420.41   -23197.526    1741.4555   -24938.981   -641.31768    329.67142    95.126399    14.599479     27.65965 
   42000    238.59455   -406.06784    204420.41   -23243.958    1731.7842   -24975.742   -891.34614    334.53229    95.125129      14.6001    27.658612 
   42200    235.74638   -352.62446    204420.41   -23315.746    1711.1115   -25026.857   -683.75359    335.95291    95.125701    14.598222    27.645069 
   42400    243.98408   -383.95628    204420.41   -23248.071    1770.9029   -25018.973   -826.04718    335.48683    95.125774    14.596143    27.656435 
   42600    243.06325   -417.11223    204420.41   -23252.184    1764.2193   -25016.403   -904.50954    336.47413    95.124762    14.594004    27.654287 
   42800    242.51601   -299.34663    204420.41    -23218.88    1760.2473   -24979.127   -541.45293    336.25951    95.125909    14.595017    27.662579 
   43000    240.85333   -392.27589    204420.41   -23266.629    1748.1791   -25014.808   -855.30247    337.07065    95.124025    14.596128    27.656984 
   43200    233.94446   -297.57019    204420.41   -23266.639    1698.0326   -24964.672   -499.51362    338.73555    95.123219    14.595235     27.65921 
   43400    242.34997   -388.79684    204420.41   -23264.578    1759.0421    -25023.62   -796.63785    340.75161    95.122166    14.594657    27.679276 
   43600    238.72401   -396.68871    204420.41   -23296.566    1732.7239    -25029.29   -856.44649     341.8313    95.120892    14.594973    27.688078 
   43800    240.26058   -237.96891    204420.41   -23307.014    1743.8768    -25050.89   -291.35663    341.44255    95.119967    14.592463    27.714925 
   44000    236.09143   -332.44917    204420.41   -23352.271    1713.6159   -25065.887   -638.70531    344.04017    95.117929    14.591305    27.726747 
   44200    235.55666   -315.95322    204420.41   -23293.939    1709.7344   -25003.673   -570.72601    343.63987     95.11732     14.59061    27.734759 
   44400    239.09483   -366.51196    204420.41   -23320.243    1735.4154   -25055.658   -732.34291    346.82285     95.11657    14.591359    27.756321 
   44600    234.20958    -324.1317    204420.41   -23361.384    1699.9569   -25061.341   -624.44934    347.41643    95.118908    14.591809    27.747847 
   44800    238.24933   -180.62616    204420.41   -23373.953    1729.2786   -25103.232   -61.534403    347.36105    95.119484    14.597007    27.749472 
   45000    237.80568   -385.88294    204420.41   -23348.908    1726.0584   -25074.966   -821.93001    348.54644    95.119176    14.599648    27.753693 
   45200    237.16099   -350.22434    204420.41   -23306.763    1721.3791   -25028.143    -688.3621    349.92293    95.118883    14.603265    27.765696 
   45400    235.54067   -456.75127    204420.41   -23338.372    1709.6184    -25047.99   -1040.8597    350.62047    95.118415    14.602641    27.763798 
   45600    240.23618   -240.57239    204420.41   -23217.418    1743.6996   -24961.118   -324.31421    351.88199    95.118188     14.60182    27.770219 
   45800    238.53268   -249.91269    204420.41   -23243.315    1731.3352    -24974.65   -380.66298    352.79522    95.116449    14.602446    27.762056 
   46000    240.53778   -427.08274    204420.41   -23181.028    1745.8888   -24926.917   -942.88614    354.41897    95.114726    14.604088    27.754103 
   46200    242.94276    -334.8528    204420.41   -23203.857    1763.3447   -24967.201   -625.42128    354.19604    95.113478       14.603    27.755787 
   46400    233.08695   -291.95431    204420.41    -23263.87    1691.8086   -24955.678   -501.30446    355.50784    95.112788    14.603267    27.748445 
   46600    236.11681   -436.45783    204420.41   -23245.785    1713.8002   -24959.585   -1023.1609    356.05469    95.111944    14.604437    27.736398 
   46800    239.76299   -408.86869    204420.41   -23186.037    1740.2651   -24926.302    -905.5522    357.50689    95.111841    14.604166    27.744762 
   47000    240.51023   -334.66602    204420.41    -23195.91    1745.6888   -24941.599   -660.88186    360.78908    95.110909    14.604198    27.758264 
   47200    239.96026   -414.88485    204420.41   -23303.587     1741.697   -25045.284    -856.0737     362.3652    95.110045    14.600766    27.757474 
   47400    242.47396   -337.66109    204420.41   -23181.677    1759.9421   -24941.619   -648.24354    362.63968    95.110135    14.598847    27.764982 
   47600    242.98795   -278.53748    204420.41   -23201.087    1763.6728   -24964.759   -454.64327    362.88822    95.111615    14.597397    27.763191 
   47800    235.96401   -501.88311    204420.41   -23212.944     1712.691   -24925.635   -1238.3497    365.45411     95.11208    14.596001    27.778646 
   48000     232.6287   -289.65418    204420.41   -23265.949    1688.4825   -24954.431   -509.48201    365.32815    95.111094    14.596158    27.796618 
   48200    240.18594   -184.32724    204420.41   -23263.528     1743.335   -25006.863   -115.83917    365.15219    95.111322    14.593961    27.801373 
   48400    232.29133   -337.42375    204420.41   -23271.671    1686.0338   -24957.705    -624.0197    366.69447    95.111858    14.589476    27.818614 
   48600    231.76118   -105.97908    204420.41   -23314.156    1682.1858   -24996.341    136.78469    368.89265    95.112367    14.591376    27.806067 
   48800    229.98945   -414.49961    204420.41   -23275.374    1669.3261     -24944.7   -914.56115    370.30173    95.114288    14.591234    27.807643 
   49000    233.83145   -315.73961    204420.41   -23293.802    1697.2124   -24991.014    -587.4144     370.5742     95.11194     14.59096    27.787543 
   49200    239.47644   -425.46168    204420.41   -23209.009    1738.1852   -24947.194   -963.99893    372.44636    95.113674    14.590013    27.792558 
   49400    237.28985   -208.28088    204420.41   -23281.617    1722.3144   -25003.932    -188.5506    372.16769    95.112921    14.591225    27.804031 
   49600     234.4791   -296.36784    204420.41   -23245.482    1701.9132   -24947.395   -501.25074    371.17804    95.114114    14.590777    27.824017 
   49800    237.48673   -255.23136    204420.41   -23210.302    1723.7434   -24934.045   -347.52076    372.16814    95.113012    14.592361    27.798164 
   50000    235.54485   -290.94708    204420.41   -23220.273    1709.6487   -24929.922   -520.64212    374.15733    95.113931    14.594878     27.77773 
   50200    243.86745    -372.1977    204420.41   -23162.928    1770.0564   -24932.984   -770.03472    377.15409    95.114342    14.596722    27.780507 
   50400    242.53165    -372.9284    204420.41    -23221.17    1760.3608   -24981.531    -801.0234     380.6806    95.114302    14.598136    27.773028 
   50600    245.14336   -245.68467    204420.41   -23122.475    1779.3173   -24901.792   -355.25678    382.03999    95.113324    14.597641    27.790956 
   50800    232.12651   -527.90298    204420.41   -23315.936    1684.8375   -25000.774   -1332.4164    383.98012    95.112326    14.599785    27.792355 
   51000     235.3715    -346.4833    204420.41   -23263.115    1708.3905   -24971.506   -640.36594    385.48329    95.110272    14.601524    27.790542 
   51200    241.72509   -423.32684    204420.41   -23254.632    1754.5066   -25009.138   -926.94028    386.78811    95.111829    14.605779    27.795807 
   51400    237.53938   -292.68541    204420.41   -23307.826    1724.1256   -25031.952   -499.39717    384.28089    95.112345    14.606777    27.818304 
   51600    234.57702    -444.8246    204420.41   -23322.569    1702.6239   -25025.193   -1055.4065    385.03149     95.11153    14.606869    27.838575 
   51800    241.54489   -379.83009    204420.41   -23225.222    1753.1986   -24978.421   -821.13162    383.66217    95.112082    14.604926     27.85013 
   52000    238.83551   -382.69752    204420.41    -23291.85    1733.5332   -25025.383   -792.59802    385.21992    95.113669    14.603155    27.842063 
   52200    235.89825   -277.69799    204420.41    -23270.57    1712.2138   -24982.784   -432.01881    387.90452      95.1148    14.601806     27.85244 
   52400    231.50538   -314.11111    204420.41   -23339.375    1680.3291   -25019.704   -546.38465    390.09005    95.114764     14.60171    27.861617 
   52600    246.59717   -211.16049    204420.41   -23196.996    1789.8695   -24986.865   -189.44209    394.06759    95.113807    14.601211    27.855847 
   52800    247.28786   -68.557972    204420.41   -23160.799    1794.8826   -24955.682    300.88146    395.77278    95.114357    14.599633    27.845551 
   53000    238.91498    -692.9823    204420.41   -23148.982      1734.11   -24883.092    -1905.558    399.36253    95.113391     14.59876    27.842194 
   53200    239.18379   -194.86152    204420.41   -23266.662    1736.0611   -25002.724   -188.38651    402.22523    95.113887    14.598449    27.847068 
   53400    237.82403   -345.06761    204420.41   -23232.942    1726.1916   -24959.134   -680.52273    404.14563    95.113133    14.598071    27.863138 
   53600    236.44014   -106.75092    204420.41   -23299.357     1716.147   -25015.504    114.24659    405.27696    95.113603    14.595526    27.869274 
   53800    236.56428   -119.68623    204420.41   -23271.646     1717.048   -24988.694    95.892289    407.48405    95.115427    14.595031    27.875517 
   54000    243.79635   -642.06406    204420.41   -23243.202    1769.5403   -25012.742   -1684.0826    411.27475    95.114353    14.596938    27.884852 
   54200    239.58279   -348.71297    204420.41   -23214.544    1738.9572   -24953.501   -703.97365    410.04298    95.114218    14.595885    27.892475 
   54400    245.51138   -345.81832    204420.41   -23169.483    1781.9885   -24951.472   -672.60432     412.0993    95.114054    14.594907    27.895793 
   54600    241.05108    -445.8027    204420.41   -23204.528    1749.6144   -24954.143    -1046.417    411.80951     95.11378     14.59081    27.893808 
   54800    245.22194   -251.74732    204420.41   -23162.635    1779.8877   -24942.523   -354.12404    412.24222    95.112416    14.589434    27.900888 
   55000    247.46839   -438.93958    204420.41   -23136.713     1796.193   -24932.906   -1032.2436    411.61973    95.112423    14.589925    27.884939 
   55200    227.37829   -408.90051    204420.41   -23269.335    1650.3736   -24919.708   -947.98495    414.96141    95.112118    14.587443    27.882668 
   55400    240.08719   -324.31264    204420.41   -23236.338    1742.6182   -24978.957   -609.83985    416.13154    95.111637    14.585371    27.875857 
   55600    238.23122   -446.40722    204420.41   -23210.641    1729.1471   -24939.788   -1072.9246    416.19507    95.112707    14.586111    27.887638 
   55800    245.05868   -256.76996    204420.41   -23124.718    1778.7026   -24903.421   -386.72687    416.46856    95.112486    14.584887    27.900994 
   56000    242.96192   -610.07236    204420.41   -23174.669    1763.4838   -24938.152   -1651.1803    420.39298    95.114291    14.580481     27.90552 
   56200    241.28729   -372.91865    204420.41   -23147.225    1751.3289   -24898.554   -802.23939    420.51852    95.113534    14.578166     27.91464 
   56400    239.06416   -338.63377    204420.41   -23213.825    1735.1928   -24949.018   -664.41916    421.46299    95.113601     14.58082    27.911653 
   56600    233.61305   -345.62033    204420.41    -23339.83    1695.6272   -25035.457    -703.4671    427.97509    95.113854    14.579121    27.917599 
   56800    242.99139   -398.66374    204420.41   -23260.818    1763.6977   -25024.516   -890.24047    434.53189    95.115905    14.579271    27.924662 
   57000    234.97425   -471.33871    204420.41   -23352.125    1705.5071   -25057.632   -1155.4471    436.93977    95.116934      14.5796    27.923864 
   57200    243.24898   -365.32277    204420.41   -23237.016    1765.5674   -25002.583   -773.78304     437.4095    95.118523    14.578579    27.915701 
   57400    238.55388     -350.009    204420.41   -23263.967     1731.489   -24995.456      -725.84    437.83447    95.117061    14.577254    27.907791 
   57600     232.2043   -345.64586    204420.41   -23295.367    1685.4021   -24980.769   -705.97587    439.49694    95.117582    14.576417    27.917076 
   57800    243.25888   -437.70311    204420.41   -23211.049    1765.6392   -24976.688   -1020.7892    438.72767    95.117316    14.575442    27.911103 
   58000    246.71132   -329.00702    204420.41   -23245.363     1790.698   -25036.061   -629.73657    440.49354    95.118312    14.575233    27.912094 
   58200    241.33933   -338.88678    204420.41   -23217.699    1751.7066   -24969.405   -666.46874    443.99219    95.119559    14.574953    27.896521 
   58400    246.66679   -416.72646    204420.41   -23268.324    1790.3748   -25058.699   -935.80711    443.62483    95.119101    14.579262      27.8927 
   58600    238.18856   -358.31375    204420.41   -23312.944    1728.8375   -25041.781   -770.80125    445.53188    95.119129    14.579079    27.890665 
   58800    239.13029   -188.20611    204420.41   -23288.969    1735.6728   -25024.641   -179.14183    445.82119    95.119063    14.579179    27.875909 
   59000    243.66585   -289.44936    204420.41   -23222.044    1768.5931   -24990.637   -476.10961    448.53502     95.11844    14.578258    27.884338 
   59200    242.45569   -380.80425    204420.41   -23265.416    1759.8095   -25025.226   -807.05638    452.05849    95.119156     14.58148    27.879841 
   59400    234.04862    -356.1734    204420.41   -23264.146    1698.7886   -24962.935   -664.25531    452.80501     95.11971    14.585765    27.890074 
   59600    237.45907   -309.16695    204420.41   -23306.719    1723.5427   -25030.262   -552.26676    451.83422    95.120141    14.589273    27.880196 
   59800    236.52271   -323.48038    204420.41   -23268.354    1716.7463     -24985.1   -587.74998    453.72061    95.122708    14.589786    27.864645 
   60000    245.96153   -154.95783    204420.41    -23243.09    1785.2558   -25028.346   -83.455077     454.4165     95.12245    14.590589    27.859888 
   60200    240.23987   -132.16866    204420.41   -23290.104    1743.7264   -25033.831    91.533697    456.71567    95.123762    14.591499    27.850785 
   60400    246.94938   -439.61789    204420.41   -23225.857    1792.4259   -25018.283   -1020.7253    460.19211     95.12389    14.591432    27.857198 
   60600    245.25283   -514.41326    204420.41   -23247.272    1780.1118   -25027.384   -1266.0403    460.24418     95.12338    14.590954    27.838061 
   60800    247.42028    -257.4213    204420.41   -23168.343    1795.8438   -24964.187    -355.9261    462.40262    95.121489    14.590614    27.830161 
   61000     241.3078   -409.15208    204420.41   -23238.958    1751.4778   -24990.436   -882.98914    461.57429    95.122307    14.590192      27.8044 
   61200    239.86775   -249.71417    204420.41   -23186.561    1741.0255   -24927.586    -354.0745    463.14831    95.122028    14.587049    27.793681 
   61400    245.13103   -181.30328    204420.41    -23208.75    1779.2278   -24987.977   -126.78524    466.77717    95.123181     14.58647    27.807919 
   61600    240.63428   -324.79548    204420.41   -23237.909    1746.5891   -24984.498   -586.62434    469.17535    95.121796    14.587036    27.844365 
   61800    237.02344    -283.2653    204420.41   -23317.859    1720.3807    -25038.24   -492.68676    470.96745    95.120885    14.585189    27.856941 
   62000    239.59159   -357.44109    204420.41   -23234.819    1739.0211    -24973.84   -734.72577      470.667    95.122904    14.585235    27.850324 
   62200    237.77862   -217.06511    204420.41   -23197.908     1725.862    -24923.77   -237.41756    471.62344     95.12172    14.584564    27.854959 
   62400    239.77048   -466.95726    204420.41   -23196.399    1740.3194   -24936.718   -1124.3244    475.51891    95.123046    14.586165    27.853764 
   62600    236.14212   -197.60334    204420.41   -23237.329    1713.9839   -24951.313   -143.02379    476.55855    95.122792    14.588506    27.859156 
   62800    232.87291   -411.14255    204420.41   -23308.378    1690.2551   -24998.633   -887.91374    475.91939    95.123412    14.589773    27.882078 
   63000    244.73789   -373.97608    204420.41   -23192.336    1776.3743    -24968.71   -760.83899    476.80643    95.123821     14.58783    27.908606 
   63200    237.93375    -283.1723    204420.41    -23207.74     1726.988   -24934.728   -453.17884    477.76193    95.121757    14.586987    27.903394 
   63400    233.05385   -233.41966    204420.41   -23254.002    1691.5684    -24945.57   -303.11546    478.01063    95.122308    14.589093     27.91192 
   63600    237.75211   -365.26426    204420.41   -23282.934    1725.6696   -25008.604   -758.56792    481.98451    95.122861    14.586952    27.925077 
   63800    240.70103   -357.79307    204420.41   -23323.474    1747.0736   -25070.547    -690.2546    484.03336    95.122357    14.588248    27.921843 
   64000    246.55456   -221.79023    204420.41   -23233.796    1789.5601   -25023.356   -256.08845    485.68127    95.122781    14.587129    27.939255 
   64200    240.75935   -573.84056    204420.41   -23227.571    1747.4969   -24975.068   -1490.5288    484.92409    95.123101    14.588006    27.938901 
   64400    238.27188   -444.92525    204420.41   -23259.604    1729.4422   -24989.046   -1066.0987     485.8531    95.122203    14.585952    27.928326 
   64600     235.6996   -319.65659    204420.41   -23264.783    1710.7719   -24975.555   -592.57337    484.87386    95.122332    14.588242    27.924401 
   64800    234.92768   -484.52316    204420.41   -23254.456    1705.1691   -24959.625   -1173.5329    485.60239    95.123836    14.587591    27.911666 
   65000    241.32696   -396.46939    204420.41   -23155.258    1751.6169   -24906.875    -877.5691    486.67169    95.123856    14.587935    27.919553 
   65200    239.45333   -299.80359    204420.41   -23201.604    1738.0175   -24939.622   -485.03657    486.31389    95.123427    14.587799    27.921857 
   65400    239.22889   -325.94837    204420.41   -23216.574    1736.3885   -24952.963   -591.18912    486.54224    95.121042    14.588248    27.928419 
   65600    245.16209   -542.07788    204420.41    -23164.57    1779.4532   -24944.023   -1364.0836    488.47826    95.119495    14.591933    27.917965 
   65800    235.40979   -275.87937    204420.41   -23208.911    1708.6684   -24917.579   -443.40027    488.49701    95.118282    14.592415    27.900199 
   66000    235.73798   -123.70729    204420.41   -23200.166    1711.0505   -24911.216     121.1252    488.79583    95.117629    14.590697    27.882154 
   66200     242.0459   -458.77546    204420.41   -23283.446    1756.8351   -25040.281   -1047.1978    492.38606    95.117822    14.592677    27.896094 
   66400    237.56398   -334.80099    204420.41   -23258.306    1724.3041    -24982.61   -626.65222    491.58436    95.116686    14.591678    27.889426 
   66600     235.9114   -281.26548    204420.41   -23315.741    1712.3092    -25028.05   -462.95008     491.5524    95.115665    14.593854    27.904244 
   66800        240.9   -248.75747    204420.41   -23320.096    1748.5178   -25068.614   -353.92392    491.92175     95.11487    14.594084    27.911087 
   67000    231.03736   -510.95416    204420.41   -23393.719    1676.9321   -25070.651   -1238.8235    494.75108    95.115219    14.592156    27.915127 
   67200    237.65405   -274.74594    204420.41   -23333.538    1724.9579   -25058.496   -427.94937     495.0374    95.115397    14.590439    27.898971 
   67400     237.2965   -290.49173    204420.41   -23263.923    1722.3626   -24986.285   -480.44588    498.93746    95.114725    14.588381    27.910836 
   67600    243.82468   -246.36386    204420.41   -23225.653     1769.746   -24995.399   -335.88763     499.0743    95.112987    14.591039    27.909174 
   67800    238.41795   -338.35502    204420.41   -23246.353    1730.5025   -24976.856   -641.28885    502.94969    95.112608    14.592398    27.923624 
   68000    230.14381   -333.15627    204420.41   -23322.285    1670.4465   -24992.732   -600.35076    504.91384    95.111664    14.591128    27.931945 
   68200    239.69385   -348.29111    204420.41    -23280.17    1739.7633   -25019.934   -697.76851    507.97934    95.110755    14.588946    27.934248 
   68400    240.54013   -455.15326    204420.41   -23258.531    1745.9058   -25004.437    -1079.836    511.44172    95.109784    14.589804    27.932691 
   68600    239.39207    -290.1583    204420.41   -23330.555    1737.5728   -25068.128   -489.74066    513.45233    95.110086    14.591161     27.93972 
   68800    237.66342   -454.31275    204420.41   -23254.595    1725.0259   -24979.621   -1032.3041    514.36761    95.109861    14.591696    27.947219 
   69000    243.16585   -284.60115    204420.41   -23251.943     1764.964   -25016.907    -482.4928    514.45988    95.110734    14.591661     27.94014 
   69200    235.68718   -403.17185    204420.41    -23327.65    1710.6818   -25038.332   -862.79711    516.54829    95.108957    14.591842    27.959109 
   69400    235.68882    -367.9773    204420.41   -23311.108    1710.6937   -25021.802   -752.55247    516.57612    95.108784    14.591105    27.970887 
   69600    240.19592   -376.58647    204420.41   -23158.118    1743.4074   -24901.525   -829.88238    518.45536    95.111612    14.586859    27.969627 
   69800    238.68844   -397.25286    204420.41   -23183.211    1732.4658   -24915.677    -934.6196    519.02359    95.113775      14.5864    27.950518 
   70000    240.79618   -405.04019    204420.41   -23213.073    1747.7643   -24960.837    -879.9308    521.75864    95.114986    14.586824    27.937373 
   70200    252.38458   -149.92553    204420.41    -23165.05     1831.876   -24996.926   -37.923372     524.2737     95.11589     14.58201    27.939467 
   70400    248.22253   -380.71266    204420.41   -23213.362    1801.6668   -25015.029   -809.51691    526.34724    95.117241    14.579317    27.927526 
   70600    239.56311   -201.15251    204420.41    -23286.29    1738.8144   -25025.105    -189.2489    526.62877    95.116599    14.576605    27.946185 
   70800    238.61905    -371.1267    204420.41    -23273.88    1731.9621   -25005.843   -773.49991    529.86253    95.117074    14.577256    27.963954 
   71000    237.69034    -372.1969    204420.41   -23311.241    1725.2213   -25036.462    -774.4351    529.89653    95.117176    14.577441    27.955932 
   71200    241.04314   -171.93848    204420.41   -23305.694    1749.5568    -25055.25   -61.764257    528.59967    95.117492    14.577054    27.964163 
   71400    238.80605   -248.26863    204420.41   -23296.182    1733.3194   -25029.502     -388.155    523.35114    95.117358    14.574753    27.951023 
   71600    241.02621   -273.16226    204420.41   -23196.034    1749.4339   -24945.468   -407.53776    521.31362     95.11766     14.57379    27.951159 
   71800    235.61915   -288.46539    204420.41   -23285.111     1710.188   -24995.299   -472.94163    521.83023    95.116248    14.574813    27.952025 
   72000    241.42791   -187.50504    204420.41   -23310.007    1752.3496   -25062.357   -90.590151    522.85064    95.118009     14.57314    27.963055 
   72200    248.20554   -512.10036    204420.41   -23139.571    1801.5434   -24941.114   -1239.3031    525.65756    95.116108    14.571414    27.968254 
   72400    240.18194   -355.54562    204420.41   -23183.873    1743.3059   -24927.179   -683.74424    527.82417    95.113668    14.570949    27.965935 
   72600    241.29951   -339.33053    204420.41   -23154.149    1751.4176   -24905.567   -652.97619    530.07385    95.113197    14.568489    27.974272 
   72800    235.34706   -192.51547    204420.41   -23191.477    1708.2131    -24899.69   -134.73365     530.5766    95.111869    14.566154    27.991898 
   73000    241.55488   -396.18464    204420.41   -23236.109    1753.2711    -24989.38    -867.7818    531.52941    95.110843    14.565976    27.999927 
   73200    239.26099   -170.19427    204420.41   -23178.103    1736.6214   -24914.724   -63.615984    532.67063    95.109262    14.566354    27.997905 
   73400    246.83979   -473.26202    204420.41   -23160.489    1791.6305    -24952.12   -1123.9947    536.78109    95.108884    14.569212    27.976246 
   73600    240.57173   -236.78752    204420.41   -23230.563    1746.1352   -24976.699   -280.04087    537.60619    95.108023    14.570387    27.994675 
   73800    231.90965    -248.5571    204420.41   -23326.233    1683.2635   -25009.497   -354.53666    537.96804    95.106569    14.573778    27.997681 
   74000    234.42384    -299.0706    204420.41   -23301.482    1701.5121   -25002.994   -483.99075    540.80988    95.108578    14.573046    28.018616 
   74200     237.8763   -560.07894    204420.41    -23195.25     1726.571   -24921.821    -1441.662    542.22994    95.109647    14.573255    28.022997 
   74400    243.78835   -406.16814    204420.41   -23223.432    1769.4822   -24992.915   -872.32549    544.02429    95.109685    14.572066    28.024479 
   74600    240.42099   -500.81783    204420.41   -23256.382    1745.0411   -25001.423   -1249.8146    545.04306    95.108527    14.568504    28.020865 
   74800    239.78136   -301.19595    204420.41    -23280.43    1740.3984   -25020.828   -537.79527    544.68384    95.108964    14.569685    28.023835 
   75000    247.14406   -263.86602    204420.41   -23254.584    1793.8389   -25048.423   -407.66726    546.21765    95.109658    14.568616    28.029657 
   75200    242.02485   -395.56777    204420.41   -23202.377    1756.6823   -24959.059   -819.93464    546.69217    95.110774    14.570691     28.02919 
   75400    234.57914   -419.29597    204420.41   -23277.943    1702.6393   -24980.582   -896.12463    548.76025    95.111762    14.571874    28.033468 
   75600    240.84501   -277.21066    204420.41   -23233.423    1748.1187   -24981.542   -415.32403    549.29277    95.113387    14.571275    28.021318 
   75800    238.50749   -441.64742    204420.41    -23198.86    1731.1524   -24930.013   -1033.9632    552.34413    95.114663    14.571915    28.024983 
   76000    243.66982   -339.50039    204420.41   -23179.641    1768.6219   -24948.263   -671.56759    555.57162    95.116354    14.570635    28.034711 
   76200    232.61063   -236.41167    204420.41   -23325.097    1688.3514   -25013.449   -285.15808    555.51296     95.11658    14.570491    28.035537 
   76400    235.30075   -368.84285    204420.41   -23257.906    1707.8769   -24965.783   -751.20648    555.54519    95.116749    14.570713     28.04669 
   76600    237.04669   -376.88793    204420.41   -23202.997    1720.5495   -24923.547   -763.64407    556.01867    95.116046    14.571871    28.047293 
   76800    239.67639   -395.81958    204420.41   -23163.576    1739.6366   -24903.213   -854.00278    555.45435    95.116675    14.572563    28.057683 
   77000    236.63249   -387.22717    204420.41   -23191.115    1717.5431   -24908.658   -819.71002     554.4481    95.116434    14.573142    28.074693 
   77200    236.90105   -333.65958    204420.41   -23148.112    1719.4924   -24867.604   -653.38839    554.45054    95.116646    14.572142    28.091915 
   77400    237.98476   -409.79732    204420.41   -23158.592    1727.3582    -24885.95   -904.90652    556.84935    95.116576    14.567059     28.09639 
   77600    239.48559    -223.8066    204420.41   -23233.666    1738.2516   -24971.917   -250.79324    556.84666    95.116868    14.564779    28.084827 
   77800    237.55162   -584.28571    204420.41   -23257.346    1724.2144   -24981.561   -1510.7618    560.78658    95.116022    14.566792    28.105946 
   78000    243.22482   -119.44591    204420.41   -23273.178     1765.392    -25038.57    138.91142    562.28791    95.115388    14.567415    28.099397 
   78200    242.38266   -369.07644    204420.41   -23302.234    1759.2794   -25061.514   -746.06873    565.35288    95.114028    14.570192    28.096866 
   78400    238.34793   -340.39059    204420.41   -23265.597    1729.9942   -24995.592   -639.10683    567.55469    95.113322    14.571092    28.109185 
   78600    242.25817   -475.52305    204420.41   -23295.936    1758.3758   -25054.312   -1127.6127    571.06822    95.110712    14.571686     28.11353 
   78800     243.8138   -374.85526    204420.41   -23276.102     1769.667   -25045.769   -779.40858      570.844    95.109076    14.572417    28.107692 
   79000    232.02675    -259.7408    204420.41    -23267.35    1684.1134   -24951.464   -373.42694    570.48057    95.109419    14.576706     28.12163 
   79200    240.99788   -334.68869    204420.41   -23214.217    1749.2283   -24963.446   -619.39437    572.78013     95.11097    14.577769     28.15267 
   79400     241.7792   -450.76728    204420.41   -23192.258    1754.8993   -24947.157   -1006.2635    573.15415    95.111359    14.576246    28.150192 
   79600    240.29177   -225.35742    204420.41   -23289.841    1744.1031   -25033.944   -270.41376    575.32493    95.111113    14.576346    28.122602 
   79800    237.88763   -480.22279    204420.41   -23263.087    1726.6532    -24989.74   -1180.8106    579.95636    95.112103    14.574621    28.124782 
   80000    230.13232   -311.45027    204420.41   -23239.094    1670.3631   -24909.458   -539.70418    580.78918    95.113208    14.574613    28.126366 
   80200    236.50838   -455.24284    204420.41   -23237.749    1716.6422   -24954.391   -1075.5506    583.45041    95.113512    14.576121    28.121582 
   80400    239.62697   -240.55456    204420.41   -23281.834    1739.2778   -25021.112   -314.30954    585.05275    95.112188    14.576425    28.121943 
   80600    236.89087   -325.96452    204420.41     -23306.9    1719.4185   -25026.319   -572.04522    586.38469    95.111435    14.577656    28.095229 
   80800    241.94167   -335.02469    204420.41    -23261.98    1756.0786   -25018.059   -631.43934    589.31026    95.111801    14.577964    28.076307 
   81000    238.09256   -262.97924    204420.41   -23270.692    1728.1407   -24998.832     -389.756    590.01359    95.111599    14.575977    28.066219 
   81200    239.36226   -474.20447    204420.41   -23214.027    1737.3565   -24951.384   -1094.1147    587.65012    95.110469     14.57823    28.047228 
   81400    240.80772   -387.39731    204420.41   -23193.153     1747.848   -24941.001   -837.18139    587.31327    95.109734    14.579467    28.049564 
   81600     232.7569   -514.11742    204420.41   -23305.018     1689.413   -24994.431   -1256.0284    587.98207    95.106763    14.580267    28.054401 
   81800    233.77284   -443.35494    204420.41   -23336.437    1696.7869   -25033.224   -1022.0595    589.30853    95.105623    14.584624     28.05923 
   82000    236.38135   -381.33044    204420.41   -23275.855    1715.7203   -24991.575   -807.27016    589.79596    95.105838    14.589965     28.06493 
   82200    231.27464   -468.91908    204420.41   -23186.798    1678.6544   -24865.453   -1123.4553    589.67257    95.104907    14.589858    28.075815 
   82400    242.48873   -178.72313    204420.41   -23215.455    1760.0493   -24975.505   -106.59017    589.45125    95.106523    14.592053    28.081118 
   82600    247.00342   -398.19905    204420.41   -23133.508    1792.8182   -24926.326    -851.2445     593.8076    95.108311    14.595975    28.065526 
   82800    236.65586   -472.87113    204420.41   -23257.888    1717.7127   -24975.601   -1126.7968    596.18177    95.109118    14.597907    28.066563 
   83000    245.64705   -341.86036    204420.41   -23160.808    1782.9732   -24943.781   -675.04328    598.06488     95.10746    14.595461     28.08754 
   83200    238.11079   -425.74211    204420.41   -23165.943     1728.273   -24894.216   -982.50582    598.73852    95.108341    14.594228     28.08491 
   83400    244.30902   -208.47479    204420.41   -23177.666    1773.2615   -24950.927   -204.02273    598.67468    95.108915    14.592546    28.084987 
   83600    235.62653   -280.01886    204420.41   -23307.259    1710.2416   -25017.501   -503.88456    596.78778    95.110638    14.592057    28.102204 
   83800    234.74272   -149.00757    204420.41   -23241.351    1703.8266   -24945.178   -22.956782    600.95227    95.111549    14.594398    28.102245 
   84000    242.37176    -457.2044    204420.41   -23215.986    1759.2003   -24975.186   -1093.0527    604.12227    95.110912     14.59804    28.125232 
   84200    241.14695   -164.34987    204420.41    -23191.11    1750.3103   -24941.421    -53.77144    605.69242    95.111202    14.599159     28.14427 
   84400    237.08403   -470.94956    204420.41   -23258.796    1720.8205   -24979.617   -1101.9489    609.73933    95.112134    14.599043    28.119549 
   84600    243.83192    -413.5477    204420.41   -23205.379    1769.7985   -24975.178    -942.4266    610.81248     95.11245    14.600355    28.144666 
   84800    239.15516   -519.79431    204420.41     -23209.9    1735.8533   -24945.753   -1323.3723    612.36769    95.111796    14.602755     28.13495 
   85000    236.85289   -318.83507    204420.41   -23181.287    1719.1428   -24900.429   -635.60303    610.78245    95.111764    14.605722    28.148848 
   85200     248.3909   -432.25723    204420.41   -23150.249    1802.8889   -24953.138   -999.34914    615.36972    95.111655    14.608388    28.171715 
   85400    239.25609   -414.86373    204420.41   -23271.537    1736.5859   -25008.123   -889.88041    617.14067    95.111556    14.608319    28.172009 
   85600    236.36921   -286.67735    204420.41   -23265.151    1715.6321   -24980.783    -469.5158    619.05566    95.111771    14.607072    28.167727 
   85800    233.27382   -512.27176    204420.41   -23286.109    1693.1649   -24979.273   -1266.4288     621.7745    95.111816    14.604849    28.136029 
   86000    244.58205   -300.83486    204420.41   -23273.895    1775.2432   -25049.138   -504.50067    623.12186    95.113241    14.603621    28.144247 
   86200    240.98539   -257.52878    204420.41   -23240.113    1749.1376   -24989.251   -358.97003    621.78773     95.11194    14.603604    28.127594 
   86400    232.88149   -362.67714    204420.41   -23312.704    1690.3173   -25003.021   -733.16714    623.99244    95.111138    14.605225    28.145656 
   86600    242.37328   -335.49581    204420.41   -23218.459    1759.2113    -24977.67   -667.68425    624.80637    95.110269    14.607988    28.136201 
   86800     241.4892   -451.23632    204420.41   -23227.601    1752.7944   -24980.396   -1024.6812     627.6543    95.110991    14.611138     28.13905 
   87000    239.69442    -355.4612    204420.41    -23217.86    1739.7674   -24957.627   -692.60108    632.66067    95.110756    14.610848    28.145183 
   87200    239.86084   -195.60695    204420.41   -23195.776    1740.9754   -24936.752   -153.12692    634.94742    95.110294    14.611677    28.147565 
   87400    240.15308   -374.93207    204420.41   -23299.786    1743.0965   -25042.882   -757.61964    636.46179    95.109925    14.613291    28.165205 
   87600    240.27278   -418.87895    204420.41   -23185.158    1743.9653   -24929.123   -926.65908    640.86433    95.109659    14.613992    28.159737 
   87800    243.94683   -296.23152    204420.41    -23223.97    1770.6325   -24994.602   -527.18858    642.42147    95.109676    14.612659    28.127552 
   88000    239.36316   -219.63002    204420.41   -23242.341     1737.363   -24979.704   -255.46178    640.12112    95.111793    14.613102     28.10652 
   88200    239.42221   -356.63254    204420.41   -23258.412    1737.7916   -24996.203   -741.91713    640.10219    95.110624    14.610095    28.098606 
   88400    242.28814   -176.59172    204420.41   -23200.957    1758.5933    -24959.55   -72.972121    640.33371    95.110557    14.608793    28.109625 
   88600    234.90199   -645.09427    204420.41   -23253.019    1704.9827   -24958.002   -1732.5783    641.42585    95.109391    14.606766    28.099613 
   88800    231.65356   -296.51816    204420.41   -23259.934    1681.4046   -24941.338   -509.65041    643.37664    95.108831    14.607648    28.094728 
   89000    238.61359   -313.49016    204420.41   -23249.567    1731.9225   -24981.489   -600.52312    644.24425     95.10966    14.609112    28.091229 
   89200    239.29101   -409.46711    204420.41   -23286.565    1736.8393   -25023.404   -867.34579    644.91828    95.110292    14.607841    28.104545 
   89400    244.35331   -185.65593    204420.41   -23250.353    1773.5829   -25023.936   -131.02226    643.55065    95.109719    14.606764    28.094365 
   89600    233.55947   -380.59225    204420.41   -23398.364    1695.2383   -25093.602   -810.51724    645.76375      95.1085    14.609033    28.095876 
   89800    243.62208   -228.15917    204420.41   -23312.401    1768.2754   -25080.677   -286.50062    648.04594    95.108685     14.60661    28.095216 
   90000    238.13695   -300.50087    204420.41   -23288.901    1728.4628   -25017.364   -546.09408    648.26338    95.109815    14.604426    28.100671 
   90200    237.03805    -350.2172    204420.41   -23309.252    1720.4868   -25029.739   -717.31816    648.71811    95.111385    14.604225    28.124727 
   90400    244.74715   -311.28216    204420.41   -23246.695    1776.4415   -25023.137   -576.72697    650.94385    95.113417    14.603091      28.1459 
   90600    235.93975   -272.06593    204420.41   -23246.305     1712.515    -24958.82   -425.14871    651.74252    95.114148    14.604619    28.158127 
   90800    238.40577   -297.58924    204420.41   -23234.957    1730.4141   -24965.371   -507.60264     656.4717    95.115482    14.604984    28.179757 
   91000    232.55574    -418.5662    204420.41   -23275.728    1687.9529   -24963.681   -909.13815    659.88365    95.115105    14.604446    28.175239 
   91200    232.46237   -343.92436    204420.41   -23302.247    1687.2752   -24989.523   -685.34651     663.7541    95.112347    14.603489     28.18385 
   91400    235.75768   -254.24326    204420.41   -23255.892    1711.1935   -24967.086   -369.62987    663.83986    95.112745    14.602926    28.185409 
   91600    241.78703   -471.48706    204420.41    -23152.31    1754.9561   -24907.266   -1127.6991     666.6885    95.112738    14.603387    28.195017 
   91800    244.86027    -381.7136    204420.41    -23209.08    1777.2625   -24986.342   -845.33597     666.4414    95.111823    14.604171    28.199966 
   92000    234.66477   -323.70942    204420.41   -23208.536    1703.2609   -24911.797   -594.90986    667.45076    95.111637    14.605506    28.211604 
   92200    236.61428   -322.00161    204420.41   -23190.246    1717.4109   -24907.657   -560.70912    667.74161    95.112949    14.606858    28.226001 
   92400    241.01979   -260.24442    204420.41   -23193.346    1749.3873   -24942.734   -390.84321     668.7444    95.110453    14.609322    28.213333 
   92600    243.10315   -207.34507    204420.41   -23173.113    1764.5089   -24937.622   -231.39347    668.95738    95.109119    14.608022    28.203767 
   92800    244.58958   -453.81698    204420.41   -23280.351    1775.2978   -25055.649   -1034.1902    668.17418    95.108127    14.611834     28.19165 
   93000    233.24441   -276.41093    204420.41   -23280.142    1692.9514   -24973.093    -440.2864    666.44862    95.105342    14.615454    28.194438 
   93200    241.48888   -224.19063    204420.41   -23238.584    1752.7921   -24991.376   -248.55309    667.16795    95.103493    14.616436    28.189243 
   93400    237.50015   -250.29157    204420.41    -23337.56    1723.8408   -25061.401   -320.56039    668.39112    95.104404    14.618077     28.18151 
   93600    240.00696   -425.27355    204420.41   -23249.747    1742.0359   -24991.783   -960.92333    670.19397    95.102038    14.617539    28.171175 
   93800    234.51853   -290.10962    204420.41   -23269.038    1702.1994   -24971.238   -509.82903    672.98261    95.102032     14.61525    28.168682 
   94000     237.8662   -308.47397    204420.41   -23284.956    1726.4977   -25011.454    -545.8381    670.82767    95.103094    14.616364    28.184161 
   94200    241.86543   -353.22451    204420.41    -23167.24    1755.5252   -24922.766   -701.13751    671.92203    95.103024    14.615976    28.197443 
   94400    241.04765    -419.7266    204420.41   -23246.113    1749.5895   -24995.702   -917.37448    673.67685    95.103425     14.61843    28.140287 
   94600    234.99472   -458.50817    204420.41   -23246.464    1705.6557    -24952.12   -1085.7545    674.74709    95.102651    14.620877    28.148972 
   94800    238.87487   -310.74583    204420.41   -23199.542    1733.8189   -24933.361   -568.50244    675.01603    95.100168    14.619637    28.133387 
   95000     233.0276   -403.85285    204420.41   -23263.796    1691.3778   -24955.174   -847.55253    677.68549    95.099572    14.620836    28.134518 
   95200    241.16831   -383.22418    204420.41     -23266.3    1750.4653   -25016.766   -801.74928    679.49569    95.098933    14.621548     28.11246 
   95400    241.29427   -291.88543    204420.41   -23209.652    1751.3795   -24961.031   -469.07909    682.44383     95.09842    14.623082    28.102909 
   95600    240.07174   -220.78182    204420.41   -23218.844    1742.5061    -24961.35   -279.08786     686.0831    95.099454    14.623705    28.101424 
   95800    236.72915   -478.81768    204420.41   -23208.955    1718.2446     -24927.2   -1124.5412    689.07707    95.099582     14.62509    28.101183 
   96000    239.34302   -331.29226    204420.41    -23215.99    1737.2168   -24953.207   -649.94996    691.86731    95.100427    14.626078    28.104204 
   96200    247.40009   -467.04153    204420.41   -23147.189    1795.6973   -24942.887   -1119.1508    694.04261    95.099784    14.624739    28.104465 
   96400    241.37778   -324.15873    204420.41   -23190.355    1751.9857   -24942.341   -634.26834    695.08218    95.101492    14.625657    28.114974 
   96600    238.43823   -357.48207    204420.41   -23234.916    1730.6496   -24965.566   -725.53588    697.08035    95.103391    14.625299    28.128575 
   96800    242.49081   -369.59293    204420.41   -23196.199    1760.0644   -24956.263   -787.50445    699.60932    95.103549    14.623711    28.137325 
   97000    235.74559   -282.83327    204420.41   -23217.437    1711.1057   -24928.543   -480.70716    700.52512    95.104614    14.623702    28.113604 
   97200    240.96517    -298.8395    204420.41   -23222.874    1748.9908   -24971.865    -524.7378    700.79639    95.104422    14.624748    28.119346 
   97400    238.10057   -319.37934    204420.41   -23198.117    1728.1988   -24926.316   -609.13615    700.86773    95.103815    14.625804    28.127603 
   97600    245.16848   -259.35118    204420.41   -23155.353    1779.4997   -24934.852   -393.47769    702.86941    95.105617    14.624803     28.14792 
   97800    242.75493   -263.43474    204420.41   -23215.595    1761.9814   -24977.577   -384.14221    701.10952    95.105974    14.622853    28.150354 
   98000    238.69654   -298.95911    204420.41   -23252.351    1732.5245   -24984.876   -511.44348    703.06415     95.10648    14.621519    28.157474 
   98200    242.04988   -377.82881    204420.41   -23248.436     1756.864     -25005.3    -840.0403     706.7628     95.10535    14.622633    28.154048 
   98400    245.15753   -178.97422    204420.41   -23187.131    1779.4202   -24966.551   -96.398005    703.91736    95.103865    14.620378     28.16756 
   98600     238.2004   -282.61461    204420.41    -23226.03    1728.9234   -24954.953   -468.21519    702.87756    95.103746    14.618143    28.169411 
   98800    240.52622   -530.52733    204420.41   -23209.686    1745.8048    -24955.49   -1365.3745    706.89882    95.103068    14.620354     28.17572 
   99000    239.12145   -238.42315    204420.41   -23273.587    1735.6087   -25009.196   -359.79095    705.25029     95.10158    14.622163    28.158751 
   99200    247.20961   -497.30044    204420.41     -23246.5    1794.3147   -25040.815   -1201.6216    705.88117    95.101343    14.622892    28.163925 
   99400    241.10193   -145.91301    204420.41   -23268.004    1749.9835   -25017.987    13.084616    704.03611    95.101098    14.623798    28.144132 
   99600    238.75444   -442.65792    204420.41   -23226.196    1732.9447   -24959.141   -1022.1872    705.87574     95.09924    14.626812    28.143994 
   99800    238.28697    -429.7323    204420.41   -23240.346    1729.5517   -24969.898   -956.47335    706.35376    95.099178    14.628559     28.15227 
  100000    240.61909   -340.06654    204420.41   -23235.083    1746.4789   -24981.562   -656.25843    709.19401    95.099657    14.628927     28.15312 
  100200    233.32299   -312.66577    204420.41   -23278.453    1693.5219   -24971.974    -585.4024    715.90723    95.099689    14.629486    28.176456 
  100400    242.17799   -466.43794    204420.41     -23180.5    1757.7938   -24938.294   -1096.2761    718.44093    95.101062    14.629754    28.196564 
  100600    234.05344   -361.64602    204420.41   -23158.558    1698.8236   -24857.382   -715.23883    718.56238    95.100712    14.628194    28.210413 
  100800    238.16481   -401.28264    204420.41   -23248.583    1728.6651   -24977.248   -890.74376    720.29155    95.101935    14.627437    28.200634 
[...]
 5175800    227.41234    -284.4887    204420.41   -25617.213    1650.6207   -27267.834   -259.63147    5031.6565    95.037671    15.384315    29.277342 
 5176000    227.31893   -368.27933    204420.41     -25645.5    1649.9427   -27295.442   -593.50954    5036.2336    95.036875    15.383449    29.283005 
 5176200    221.84846   -392.26996    204420.41   -25651.739    1610.2365   -27261.975   -657.49745    5048.2771     95.03532    15.382935    29.278174 
 5176400    224.22903   -377.72471    204420.41   -25596.511    1627.5154   -27224.026   -589.71772    5046.8451    95.035065    15.383084     29.27471 
 5176600    228.15428   -269.80742    204420.41   -25532.241    1656.0059   -27188.247   -247.87083    5043.8273    95.034101    15.382675    29.265246 
 5176800    226.94236   -295.24606    204420.41   -25587.235    1647.2095   -27234.444   -299.73904    5042.9581    95.034703    15.383729    29.264155 
 5177000    229.28901   -379.79548    204420.41   -25568.052    1664.2421   -27232.294   -589.54851    5049.5213    95.033709    15.383177     29.27585 
 5177200    233.13294   -363.24314    204420.41   -25543.256    1692.1424   -27235.398   -564.10801    5055.8045    95.032356    15.383942    29.280833 
 5177400    234.47281   -140.40224    204420.41   -25508.067    1701.8675   -27209.935    265.35303    5045.8177    95.030925    15.383445    29.272835 
 5177600    226.23723   -370.89566    204420.41   -25597.731    1642.0915   -27239.823   -557.43235    5044.1065    95.028757    15.380891    29.279409 
 5177800    218.42309   -351.59135    204420.41   -25624.413    1585.3743   -27209.787   -494.15035    5061.4349    95.027473    15.379833     29.28256 
 5178000    224.09211   -239.82438    204420.41   -25620.083    1626.5216   -27246.605     -129.966    5062.9886    95.027945    15.380863    29.279715 
 5178200    224.73514   -222.60242    204420.41   -25613.115    1631.1889   -27244.303   -69.319991    5054.7933    95.028118    15.380444    29.279414 
 5178400    225.79669   -284.14163    204420.41   -25621.128    1638.8939   -27260.021   -270.80053    5053.9215    95.026405    15.379941    29.284206 
 5178600    225.77769   -272.84826    204420.41   -25583.762     1638.756   -27222.518   -238.63746     5043.084    95.026557    15.381421    29.276596 
 5178800    223.32268   -120.81809    204420.41   -25591.451    1620.9368   -27212.388    251.60533    5040.1396    95.025252    15.381363    29.279278 
 5179000    225.91645   -340.13916    204420.41   -25629.496    1639.7631   -27269.259   -505.92576    5056.0683    95.024595    15.380886    29.280386 
 5179200    228.15255   -371.51786    204420.41    -25630.24    1655.9934   -27286.233   -589.20514    5062.0216    95.024149    15.381275    29.277618 
 5179400    231.57531   -325.39872    204420.41   -25568.173    1680.8367   -27249.009   -402.39514    5054.4069    95.024533    15.382767    29.280098 
 5179600    228.56293   -230.30413    204420.41   -25634.488     1658.972   -27293.459   -83.030394    5053.5743    95.022934    15.381034    29.276282 
 5179800    224.77758   -157.93691    204420.41   -25619.309    1631.4969   -27250.806    158.14698    5057.2128    95.022438    15.380717    29.278332 
 5180000    221.07692   -263.81945    204420.41   -25711.723    1604.6365   -27316.359   -232.97875    5057.5035      95.0226    15.380096    29.277856 
 5180200    226.19185   -273.66145    204420.41   -25682.579    1641.7621   -27324.341   -310.27097    5058.7036    95.021731    15.379539    29.274948 
 5180400    230.38376   -267.35752    204420.41   -25603.188    1672.1881   -27275.376   -236.91896    5062.7844    95.022924     15.37992    29.280248 
 5180600    226.76474   -442.20763    204420.41   -25599.658    1645.9202   -27245.579   -828.72643    5062.3041    95.022441    15.380158     29.27755 
 5180800    225.56344   -161.17005    204420.41   -25634.682    1637.2009   -27271.883    205.97363    5046.8616    95.022491    15.380498    29.270395 
 5181000    227.88806   -228.91237    204420.41   -25684.069    1654.0736   -27338.142   -100.17375    5051.0283    95.020415    15.381155    29.278531 
 5181200    226.71759   -356.28765    204420.41   -25664.502    1645.5781    -27310.08   -562.41363    5063.5355    95.020321    15.382535    29.278767 
 5181400    227.24152   -301.55517    204420.41   -25573.123    1649.3809   -27222.503   -408.24297    5064.0358    95.019146    15.384356    29.278179 
 5181600    222.16789   -423.53617    204420.41   -25698.511    1612.5551   -27311.066   -774.15431    5058.0704    95.018539    15.384929    29.275098 
 5181800    232.49798   -257.86778    204420.41   -25585.859    1687.5337   -27273.392   -189.64004      5042.48    95.017722    15.385154    29.273976 
 5182000     230.9135   -291.02609    204420.41   -25607.108    1676.0331   -27283.141   -266.60278    5044.4112     95.01691    15.386286    29.276025 
 5182200    228.66185   -217.40472    204420.41   -25579.831      1659.69   -27239.521   -12.736638    5064.1987    95.015557    15.385819    29.271857 
 5182400     222.3423    -411.2268    204420.41   -25654.837     1613.821   -27268.658   -761.90804    5076.6958    95.016996    15.385942    29.281516 
 5182600    227.39576   -270.24316    204420.41   -25618.503    1650.5004   -27269.003    -245.8652    5065.0765    95.018967    15.386536    29.280111 
 5182800    226.76346   -187.86731    204420.41   -25591.822    1645.9109   -27237.733    82.703873    5053.4656    95.018181    15.387519    29.269846 
 5183000    230.36414   -265.13157    204420.41   -25556.359    1672.0457   -27228.405   -166.11051    5055.1995    95.018326    15.387351    29.274471 
 5183200    230.76556   -220.42724    204420.41   -25565.597    1674.9593   -27240.557   -53.848282    5055.0319    95.017557    15.387434    29.278247 
 5183400    219.34449   -254.53334    204420.41   -25703.603    1592.0621   -27295.665   -178.60471    5056.2029    95.016259    15.386759     29.26578 
 5183600    224.99634   -216.02431    204420.41   -25687.923    1633.0848   -27321.008   -64.923561    5052.2834    95.016614    15.386016    29.271188 
 5183800    226.74238   -300.99675    204420.41   -25662.374     1645.758   -27308.132   -357.12871    5059.0654    95.016557    15.385172    29.267472 
 5184000     229.3947   -340.42114    204420.41   -25582.484    1665.0093   -27247.493   -491.17542    5058.4957     95.01523     15.38607    29.263676 
 5184200    231.60724   -247.00835    204420.41   -25596.248    1681.0685   -27277.317    -176.5353    5046.5361     95.01376    15.385415    29.268827 
 5184400    223.99645   -296.98517    204420.41   -25580.047    1625.8272   -27205.874   -355.66382    5050.7391    95.010848     15.38307     29.26264 
 5184600    229.10601   -147.67341    204420.41   -25632.141    1662.9138   -27295.055    224.18523    5051.6065     95.01018    15.382786    29.259488 
 5184800    229.81835   -262.27848    204420.41   -25608.876    1668.0842   -27276.961   -180.62016    5054.5415    95.010343    15.384054    29.277517 
 5185000    222.72232   -366.72929    204420.41   -25610.511    1616.5793    -27227.09   -581.11934    5056.2573    95.010035    15.383971    29.278265 
 5185200     228.6715   -267.72557    204420.41   -25673.257    1659.7601   -27333.017   -227.76389    5046.2696    95.008582    15.384606    29.273857 
 5185400    225.97757   -195.83758    204420.41   -25607.566    1640.2068   -27247.773    9.2460358     5037.354    95.008471    15.382084    29.282224 
 5185600    221.63041   -245.73353    204420.41   -25611.341    1608.6539   -27219.995   -110.71534    5041.0379    95.008063    15.381355    29.283328 
 5185800     225.0899    -322.4971    204420.41   -25586.609    1633.7638   -27220.373   -407.71798    5055.9726    95.007368    15.380144    29.270319 
 5186000     232.2758    -257.0469    204420.41   -25589.171     1685.921   -27275.092   -221.21348    5056.8615    95.006764    15.379783    29.272765 
 5186200     228.1561   -289.37405    204420.41   -25565.746    1656.0191   -27221.766   -315.26081    5049.9342    95.005182    15.379343    29.280118 
 5186400    228.27914   -226.41832    204420.41   -25614.429    1656.9122   -27271.341    -142.6486    5053.8868     95.00451    15.379916    29.278803 
 5186600    226.62838   -225.88904    204420.41   -25600.962    1644.9305   -27245.892   -92.010833    5057.2918    95.004862    15.380626    29.279063 
 5186800     229.1412   -321.86711    204420.41   -25613.937    1663.1693   -27277.106   -413.26691    5056.0123      95.0048    15.380472    29.282702 
 5187000    231.04919   -236.32873    204420.41   -25585.119     1677.018   -27262.137   -113.87202    5041.4775    95.003127    15.380201    29.280644 
 5187200    222.27078   -272.30887    204420.41   -25639.192    1613.3019   -27252.494   -251.96317    5039.7332    95.000849    15.381014    29.285685 
 5187400    222.17441   -336.98114    204420.41    -25662.78    1612.6024   -27275.382   -513.07387    5046.4622    94.999865    15.381211    29.281506 
 5187600    230.35461   -394.79936    204420.41    -25572.46    1671.9765   -27244.436   -673.96302    5053.7011    94.999689    15.380643     29.27559 
 5187800    225.97529   -205.27102    204420.41   -25628.483    1640.1902   -27268.673    -27.22366    5050.8297    94.999354    15.381034    29.275565 
 5188000    229.42197   -188.90264    204420.41   -25568.423    1665.2071    -27233.63     55.83144    5049.2377    94.998733    15.379882    29.283392 
 5188200    227.30907   -325.87354    204420.41   -25611.504    1649.8711   -27261.375    -454.7276    5047.0576     94.99686    15.379423    29.281564 
 5188400    227.24678   -290.14357    204420.41   -25603.404    1649.4191   -27252.823   -284.36648     5046.876    94.996404    15.379431    29.279966 
 5188600     223.6396   -95.284056    204420.41   -25644.535    1623.2371   -27267.772    406.42645    5040.3647    94.996106    15.379262    29.280726 
 5188800    227.67518   -229.83601    204420.41   -25678.821    1652.5285    -27331.35   -128.29263    5052.0779    94.994439       15.379    29.276192 
 5189000    221.44369   -241.27056    204420.41   -25634.745    1607.2986   -27242.044   -125.43951    5060.3057    94.994086    15.380274    29.275293 
 5189200    223.82415   -219.72071    204420.41   -25740.801    1624.5767   -27365.378   -43.771517    5057.8009     94.99288    15.379527    29.274139 
 5189400    225.12271   -253.62354    204420.41   -25681.689     1634.002   -27315.691    -147.4606     5059.322    94.993085    15.379681    29.275306 
 5189600    231.62204   -200.03206    204420.41   -25608.701    1681.1759   -27289.876    -23.05161    5058.1441    94.993661    15.378974    29.278638 
 5189800    224.15435   -227.76696    204420.41   -25637.553    1626.9733   -27264.527   -118.44515    5058.0061    94.993182    15.378474    29.278488 
 5190000    221.56831   -306.92535    204420.41    -25623.25    1608.2031   -27231.453   -386.77838    5056.2631    94.991756    15.379251    29.276318 
 5190200    225.84707   -360.34262    204420.41   -25639.596    1639.2595   -27278.855   -555.78207    5053.6149    94.991426    15.380295    29.279847 
 5190400    237.49363   -274.26671    204420.41   -25548.944    1723.7935   -27272.737   -261.91831     5050.557    94.991424    15.382007    29.282642 
 5190600    223.54947   -353.58195    204420.41   -25628.606    1622.5829   -27251.189   -510.46491    5047.2944    94.989896    15.380447    29.278432 
 5190800    234.64569   -247.31084    204420.41   -25602.084    1703.1224   -27305.207   -139.73564    5041.7459    94.989609    15.379286    29.273679 
 5191000    227.98805   -152.53401    204420.41   -25619.421    1654.7994   -27274.221    133.80577    5040.7591    94.987093    15.378711    29.280709 
 5191200    222.50265    -374.3015    204420.41   -25625.035    1614.9849    -27240.02   -587.14074    5051.2655    94.987352     15.37885    29.278303 
 5191400    225.65451   -265.69909    204420.41   -25605.212    1637.8619   -27243.074   -190.07539    5056.3118    94.987367    15.377199    29.275419 
 5191600    229.30222   -199.15044    204420.41   -25627.066     1664.338   -27291.404   -14.496349    5054.4408    94.985684    15.377545    29.275103 
 5191800    231.24729   -211.26475    204420.41   -25572.085    1678.4559   -27250.541   -6.3164793    5053.2571    94.984941    15.377013    29.268526 
 5192000    225.37036   -284.96923    204420.41   -25557.187    1635.7995   -27192.986   -297.09763    5054.1919    94.984978    15.375628    29.276313 
 5192200    229.39461    -211.5026    204420.41   -25617.518    1665.0086   -27282.526   -36.767215    5046.1964    94.985205    15.376189    29.279827 
 5192400    226.48594    -204.4295    204420.41   -25615.993    1643.8967   -27259.889   -16.574148    5041.7387    94.983953    15.375347    29.276883 
 5192600    226.89461   -394.39265    204420.41   -25654.326    1646.8629   -27301.189   -617.48016    5051.0479    94.983829    15.375471    29.281093 
 5192800    231.35697   -238.71188    204420.41   -25609.042    1679.2519   -27288.294   -103.36217    5054.2959     94.98356    15.375689    29.280284 
 5193000    225.00295   -258.25492    204420.41     -25669.4    1633.1327   -27302.533   -205.07571    5054.7829    94.982638    15.375477    29.275286 
 5193200    226.20466   -312.37595    204420.41   -25606.561    1641.8551   -27248.416   -399.15671    5057.8454     94.98223    15.375287    29.278928 
 5193400    230.27844   -291.99939    204420.41    -25603.38    1671.4236   -27274.804   -292.14676    5056.4592    94.981932     15.37603    29.280995 
 5193600    226.61332   -274.11861    204420.41   -25598.866    1644.8212   -27243.687   -243.17059    5054.4975    94.981227    15.375365    29.276844 
 5193800     230.5484   -262.69686    204420.41   -25619.017    1673.3831     -27292.4   -234.43153    5049.0946    94.979625    15.375032    29.275603 
 5194000    216.94312   -258.72555    204420.41   -25721.868    1574.6323     -27296.5   -207.96361    5044.6827    94.979774    15.375037    29.279198 
 5194200    221.99152   -133.67376    204420.41   -25664.904     1611.275   -27276.179    237.32197    5036.9448    94.977691    15.375112    29.277864 
 5194400    230.33005   -400.68026    204420.41   -25604.632    1671.7983    -27276.43     -704.975    5056.2654    94.976499    15.375287    29.282121 
 5194600    225.86065     -425.871    204420.41   -25569.687    1639.3582   -27209.045   -745.57173     5061.742    94.977037    15.375307    29.280967 
 5194800    223.39881   -274.26689    204420.41   -25602.189    1621.4894   -27223.678   -215.79086    5049.0864     94.97703    15.375588    29.277696 
 5195000    225.82564   -233.25498    204420.41   -25608.726    1639.1041    -27247.83   -76.407368    5045.3284     94.97766    15.376207    29.271657 
 5195200    226.56571   -309.03966    204420.41   -25607.098    1644.4756   -27251.573   -399.44634    5049.2359    94.977124    15.376736    29.280063 
 5195400    226.57733   -231.04905    204420.41   -25618.742      1644.56   -27263.302   -118.93806    5050.3811     94.97635    15.375993    29.280549 
 5195600    219.23419   -267.23793    204420.41   -25653.398    1591.2615    -27244.66   -227.22338    5053.5952    94.975912    15.375976    29.274965 
 5195800    231.96272   -314.79403    204420.41   -25553.809    1683.6486   -27237.457   -416.66875    5050.6173    94.976081    15.376205    29.279464 
 5196000    222.45537     -224.923    204420.41    -25623.37    1614.6417   -27238.011   -83.516259    5049.9683    94.975984    15.376534    29.276009 
 5196200    223.79835   -300.81576    204420.41   -25621.241    1624.3894    -27245.63   -337.68901    5055.9796    94.975298    15.376013    29.275226 
 5196400    227.03516   -279.06936    204420.41   -25617.385    1647.8831   -27265.268   -236.25953    5060.8999    94.975896    15.375987     29.27851 
 5196600    233.61087   -246.99404    204420.41   -25596.145    1695.6113   -27291.756   -182.23193    5054.5409    94.975709    15.375308    29.277912 
 5196800    227.60831   -140.01828    204420.41   -25589.086    1652.0431   -27241.129    199.04906    5049.1159     94.97532    15.374586    29.268714 
 5197000    229.77669   -277.33514    204420.41   -25552.503    1667.7818   -27220.285   -295.59272    5060.0479    94.974949    15.373518    29.271542 
 5197200    227.44179   -280.07041    204420.41   -25637.925    1650.8345    -27288.76   -256.10138    5056.2689    94.975293     15.37314    29.277012 
 5197400    223.12702   -249.52288    204420.41   -25637.066    1619.5167   -27256.583   -149.91052    5048.6677    94.974336     15.37362    29.277083 
 5197600    229.16869   -318.65475    204420.41    -25674.33    1663.3688   -27337.699   -391.51111    5053.6285    94.973298    15.372979    29.277483 
 5197800    219.27067   -400.96999    204420.41   -25698.205    1591.5263   -27289.731   -675.49474    5063.8567    94.972674    15.372487    29.283135 
 5198000    233.97174   -351.46694    204420.41   -25567.488    1698.2307   -27265.718   -478.30103    5056.1087    94.971806    15.371404    29.274761 
 5198200    225.18129   -173.36258    204420.41   -25587.325    1634.4272   -27221.752    123.63607    5042.3611    94.971668    15.369068    29.270111 
 5198400     221.5763   -271.04775    204420.41   -25642.164    1608.2612   -27250.425   -218.40095    5043.3396    94.971219    15.367746    29.274008 
 5198600    218.95632   -275.20699    204420.41   -25690.907    1589.2446   -27280.151   -244.64698    5052.7306     94.97162    15.366148     29.26628 
 5198800    227.32813   -248.00877    204420.41   -25618.256    1650.0095   -27268.266    -163.6167    5060.9786    94.973369     15.36656    29.265522 
 5199000     233.2223    -308.0716    204420.41   -25564.963     1692.791   -27257.754   -327.86791    5062.0592    94.975172    15.368684    29.273967 
 5199200    226.00584     -311.632    204420.41   -25621.965     1640.412   -27262.377   -385.13436    5059.0911     94.97584    15.370091    29.268195 
 5199400    226.14413   -290.41204    204420.41   -25613.384    1641.4157     -27254.8    -320.0543     5050.984    94.975376    15.369223    29.265885 
 5199600    226.85619   -322.51906    204420.41   -25597.314     1646.584   -27243.898   -435.31624    5044.7675    94.974433    15.368775    29.275512 
 5199800    230.70362   -232.63756    204420.41    -25621.55    1674.5097   -27296.059   -113.53099    5047.0277     94.97424    15.367282    29.279559 
 5200000    228.50347   -288.77515    204420.41   -25571.034    1658.5404   -27229.575   -326.04951    5052.5627    94.973882    15.367554    29.277577 
Loop time of 7929.92 on 120 procs for 5200000 steps with 8482 atoms

Performance: 566.563 ns/day, 0.042 hours/ns, 655.744 timesteps/s
98.4% CPU use with 120 MPI tasks x no OpenMP threads

MPI task timing breakdown:
Section |  min time  |  avg time  |  max time  |%varavg| %total
---------------------------------------------------------------
Pair    | 0.29183    | 2597.3     | 6519.8     |4557.1 | 32.75
Neigh   | 0.79486    | 121.7      | 434.44     |1293.7 |  1.53
Comm    | 59.336     | 2432.3     | 6559.6     |4375.9 | 30.67
Output  | 117.78     | 117.89     | 120.18     |   2.0 |  1.49
Modify  | 355.47     | 2545       | 7648.8     |5250.6 | 32.09
Other   |            | 115.9      |            |       |  1.46

Nlocal:    70.6833 ave 226 max 0 min
Histogram: 40 22 28 0 0 0 0 0 12 18
Nghost:    612.575 ave 991 max 67 min
Histogram: 16 4 0 4 6 16 24 18 23 9
Neighs:    0 ave 0 max 0 min
Histogram: 120 0 0 0 0 0 0 0 0 0
FullNghs:  7266.63 ave 28221 max 0 min
Histogram: 72 18 0 0 0 0 0 4 15 11

Total # of neighbors = 871996
Ave neighs/atom = 102.805
Neighbor list builds = 548016
Dangerous builds = 0
write_data 		${DIR}/data.${NAME}_run
write_data 		run_28/data.${NAME}_run
write_data 		run_28/data.ibeam_cooling_28_run
Total wall time: 2:12:27
