LAMMPS data file via write_data, version 29 Oct 2020, timestep = 50000

9436 atoms
2 atom types

0.0 157.504 xlo xhi
0.0 36.48765944037512 ylo yhi
0.0 45.87204637965853 zlo zhi

Masses

1 12.01
2 18.015

Atoms # atomic

1 1 0.0 2.8417180249513345 1.677 0 0 0
3 1 0.0 0.0 1.677 0 0 0
5 1 1.2305 0.7104295062378347 1.677 0 0 0
12 1 1.2305 2.1312885187135 1.677 0 0 0
14 1 2.461 2.8417180249513345 1.677 0 0 0
16 1 2.461 0.0 1.677 0 0 0
18 1 3.6915 0.7104295062378347 1.677 0 0 0
33 1 3.6914999999999996 2.1312885187135 1.677 0 0 0
35 1 4.922 2.841718024951334 1.677 0 0 0
37 1 4.922 0.0 1.677 0 0 0
39 1 6.1525 0.7104295062378343 1.677 0 0 0
62 1 6.1525 2.1312885187134993 1.677 0 0 0
64 1 7.382999999999999 2.8417180249513345 1.677 0 0 0
66 1 7.382999999999999 0.0 1.677 0 0 0
68 1 8.613499999999998 0.7104295062378343 1.677 0 0 0
97 1 8.613499999999998 2.1312885187135002 1.677 0 0 0
99 1 9.844 2.8417180249513336 1.677 0 0 0
101 1 9.844 0.0 1.677 0 0 0
103 1 11.0745 0.7104295062378334 1.677 0 0 0
132 1 11.0745 2.1312885187135002 1.677 0 0 0
134 1 12.305 2.8417180249513336 1.677 0 0 0
136 1 12.305 0.0 1.677 0 0 0
138 1 13.535499999999999 0.7104295062378352 1.677 0 0 0
167 1 13.535499999999999 2.1312885187134984 1.677 0 0 0
169 1 14.765999999999998 2.8417180249513354 1.677 0 0 0
171 1 14.765999999999998 0.0 1.677 0 0 0
173 1 15.9965 0.7104295062378352 1.677 0 0 0
202 1 15.9965 2.1312885187135002 1.677 0 0 0
204 1 17.226999999999997 2.8417180249513336 1.677 0 0 0
206 1 17.227 0.0 1.677 0 0 0
208 1 18.457499999999996 0.7104295062378334 1.677 0 0 0
237 1 18.4575 2.1312885187135002 1.677 0 0 0
239 1 19.688 2.841718024951337 1.677 0 0 0
241 1 19.688 0.0 1.677 0 0 0
243 1 20.918499999999998 0.7104295062378405 1.677 0 0 0
272 1 20.918499999999998 2.1312885187135002 1.677 0 0 0
274 1 22.149 2.8417180249513407 1.677 0 0 0
276 1 22.148999999999997 0.0 1.677 0 0 0
278 1 23.3795 0.7104295062378405 1.677 0 0 0
307 1 23.3795 2.1312885187135002 1.677 0 0 0
309 1 24.61 2.841718024951337 1.677 0 0 0
311 1 24.61 0.0 1.677 0 0 0
313 1 25.8405 0.710429506237837 1.677 0 0 0
342 1 25.8405 2.1312885187135002 1.677 0 0 0
6 1 0.0 7.104295062378334 1.677 0 0 0
8 1 0.0 4.262577037427 1.677 0 0 0
10 1 1.2305000000000001 4.973006543664834 1.677 0 0 0
25 1 1.2305 6.393865556140499 1.677 0 0 0
27 1 2.461 7.104295062378334 1.677 0 0 0
29 1 2.461 4.262577037427 1.677 0 0 0
31 1 3.6914999999999996 4.973006543664834 1.677 0 0 0
54 1 3.6914999999999996 6.393865556140499 1.677 0 0 0
56 1 4.922 7.104295062378334 1.677 0 0 0
58 1 4.922 4.262577037426999 1.677 0 0 0
60 1 6.1525 4.973006543664834 1.677 0 0 0
89 1 6.1525 6.393865556140499 1.677 0 0 0
91 1 7.383 7.104295062378334 1.677 0 0 0
93 1 7.382999999999999 4.262577037427 1.677 0 0 0
95 1 8.6135 4.973006543664834 1.677 0 0 0
124 1 8.6135 6.3938655561405 1.677 0 0 0
126 1 9.844 7.104295062378334 1.677 0 0 0
128 1 9.844 4.2625770374270004 1.677 0 0 0
130 1 11.074499999999999 4.973006543664834 1.677 0 0 0
159 1 11.074499999999999 6.393865556140499 1.677 0 0 0
161 1 12.305 7.104295062378334 1.677 0 0 0
163 1 12.305 4.262577037426999 1.677 0 0 0
165 1 13.535499999999999 4.973006543664834 1.677 0 0 0
194 1 13.535499999999999 6.393865556140499 1.677 0 0 0
196 1 14.765999999999998 7.104295062378332 1.677 0 0 0
198 1 14.766 4.262577037426999 1.677 0 0 0
200 1 15.996499999999997 4.973006543664834 1.677 0 0 0
229 1 15.9965 6.393865556140499 1.677 0 0 0
231 1 17.227 7.104295062378338 1.677 0 0 0
233 1 17.226999999999997 4.2625770374270004 1.677 0 0 0
235 1 18.4575 4.973006543664837 1.677 0 0 0
264 1 18.457499999999996 6.393865556140501 1.677 0 0 0
266 1 19.688000000000002 7.104295062378338 1.677 0 0 0
268 1 19.688 4.2625770374270004 1.677 0 0 0
270 1 20.9185 4.973006543664837 1.677 0 0 0
299 1 20.9185 6.393865556140501 1.677 0 0 0
301 1 22.149 7.104295062378334 1.677 0 0 0
303 1 22.149 4.2625770374270004 1.677 0 0 0
305 1 23.3795 4.973006543664837 1.677 0 0 0
334 1 23.3795 6.393865556140501 1.677 0 0 0
336 1 24.61 7.104295062378338 1.677 0 0 0
338 1 24.61 4.2625770374270004 1.677 0 0 0
340 1 25.8405 4.973006543664837 1.677 0 0 0
364 1 25.8405 6.393865556140497 1.677 0 0 0
21 1 0.0 8.525154074854 1.677 0 0 0
23 1 1.2304999999999997 9.235583581091834 1.677 0 0 0
46 1 1.2304999999999997 10.656442593567498 1.677 0 0 0
50 1 2.4609999999999994 8.525154074854 1.677 0 0 0
52 1 3.6915 9.235583581091834 1.677 0 0 0
81 1 3.6914999999999996 10.6564425935675 1.677 0 0 0
85 1 4.922 8.525154074854 1.677 0 0 0
87 1 6.1525 9.235583581091834 1.677 0 0 0
116 1 6.1525 10.6564425935675 1.677 0 0 0
120 1 7.383 8.525154074854 1.677 0 0 0
122 1 8.613499999999998 9.235583581091834 1.677 0 0 0
151 1 8.613499999999998 10.656442593567498 1.677 0 0 0
155 1 9.844 8.525154074853997 1.677 0 0 0
157 1 11.074499999999999 9.235583581091834 1.677 0 0 0
186 1 11.0745 10.656442593567498 1.677 0 0 0
190 1 12.305 8.525154074854 1.677 0 0 0
192 1 13.535499999999999 9.235583581091833 1.677 0 0 0
221 1 13.535499999999999 10.6564425935675 1.677 0 0 0
225 1 14.765999999999998 8.525154074854 1.677 0 0 0
227 1 15.9965 9.235583581091836 1.677 0 0 0
256 1 15.996499999999997 10.6564425935675 1.677 0 0 0
260 1 17.226999999999997 8.525154074854 1.677 0 0 0
262 1 18.4575 9.235583581091838 1.677 0 0 0
291 1 18.4575 10.6564425935675 1.677 0 0 0
295 1 19.688 8.525154074854001 1.677 0 0 0
297 1 20.9185 9.235583581091834 1.677 0 0 0
326 1 20.918499999999998 10.656442593567501 1.677 0 0 0
330 1 22.149 8.525154074854001 1.677 0 0 0
332 1 23.3795 9.235583581091834 1.677 0 0 0
356 1 23.3795 10.656442593567498 1.677 0 0 0
360 1 24.61 8.525154074853997 1.677 0 0 0
362 1 25.8405 9.235583581091838 1.677 0 0 0
378 1 25.8405 10.656442593567498 1.677 0 0 0
19 1 0.0 11.366872099805333 1.677 0 0 0
42 1 0.0 12.787731112280998 1.677 0 0 0
44 1 1.2305000000000001 13.498160618518833 1.677 0 0 0
48 1 2.461 11.366872099805335 1.677 0 0 0
77 1 2.461 12.787731112280998 1.677 0 0 0
79 1 3.6915 13.498160618518833 1.677 0 0 0
83 1 4.922 11.366872099805333 1.677 0 0 0
112 1 4.922 12.787731112281 1.677 0 0 0
114 1 6.152499999999999 13.498160618518833 1.677 0 0 0
118 1 7.382999999999999 11.366872099805335 1.677 0 0 0
147 1 7.382999999999999 12.787731112280998 1.677 0 0 0
149 1 8.6135 13.498160618518835 1.677 0 0 0
153 1 9.844 11.366872099805335 1.677 0 0 0
182 1 9.844 12.787731112280998 1.677 0 0 0
184 1 11.074499999999999 13.498160618518833 1.677 0 0 0
188 1 12.304999999999998 11.366872099805333 1.677 0 0 0
217 1 12.305 12.787731112280998 1.677 0 0 0
219 1 13.535499999999999 13.498160618518837 1.677 0 0 0
223 1 14.765999999999998 11.366872099805336 1.677 0 0 0
252 1 14.765999999999998 12.787731112281 1.677 0 0 0
254 1 15.996500000000001 13.498160618518837 1.677 0 0 0
258 1 17.227 11.366872099805336 1.677 0 0 0
287 1 17.227 12.787731112281 1.677 0 0 0
289 1 18.4575 13.498160618518833 1.677 0 0 0
293 1 19.688 11.366872099805335 1.677 0 0 0
322 1 19.688 12.787731112281 1.677 0 0 0
324 1 20.9185 13.498160618518835 1.677 0 0 0
328 1 22.149 11.366872099805335 1.677 0 0 0
352 1 22.148999999999997 12.787731112280998 1.677 0 0 0
354 1 23.3795 13.498160618518835 1.677 0 0 0
358 1 24.61 11.366872099805335 1.677 0 0 0
374 1 24.61 12.787731112280998 1.677 0 0 0
376 1 25.8405 13.498160618518835 1.677 0 0 0
40 1 0.0 15.629449137232333 1.677 0 0 0
69 1 0.0 17.050308149708 1.677 0 0 0
71 1 1.2305000000000001 17.76073765594583 1.677 0 0 0
73 1 1.2305000000000001 14.919019630994498 1.677 0 0 0
75 1 2.4610000000000003 15.629449137232331 1.677 0 0 0
104 1 2.4610000000000003 17.050308149708 1.677 0 0 0
106 1 3.6914999999999996 17.76073765594583 1.677 0 0 0
108 1 3.6915 14.919019630994498 1.677 0 0 0
110 1 4.921999999999999 15.629449137232333 1.677 0 0 0
139 1 4.921999999999999 17.050308149708 1.677 0 0 0
141 1 6.1525 17.76073765594583 1.677 0 0 0
143 1 6.152499999999999 14.919019630994498 1.677 0 0 0
145 1 7.382999999999999 15.629449137232333 1.677 0 0 0
174 1 7.383 17.050308149708 1.677 0 0 0
176 1 8.613499999999998 17.76073765594583 1.677 0 0 0
178 1 8.6135 14.919019630994498 1.677 0 0 0
180 1 9.844 15.629449137232331 1.677 0 0 0
209 1 9.844 17.050308149708 1.677 0 0 0
211 1 11.0745 17.760737655945835 1.677 0 0 0
213 1 11.074499999999999 14.919019630994498 1.677 0 0 0
215 1 12.305 15.629449137232337 1.677 0 0 0
244 1 12.304999999999998 17.050308149708 1.677 0 0 0
246 1 13.5355 17.760737655945835 1.677 0 0 0
248 1 13.535499999999999 14.919019630994498 1.677 0 0 0
250 1 14.766 15.629449137232337 1.677 0 0 0
279 1 14.766 17.050308149708 1.677 0 0 0
281 1 15.9965 17.76073765594583 1.677 0 0 0
283 1 15.9965 14.9190196309945 1.677 0 0 0
285 1 17.227 15.629449137232333 1.677 0 0 0
314 1 17.226999999999997 17.050308149708002 1.677 0 0 0
316 1 18.4575 17.76073765594583 1.677 0 0 0
318 1 18.4575 14.9190196309945 1.677 0 0 0
320 1 19.688000000000002 15.629449137232333 1.677 0 0 0
344 1 19.688 17.050308149707995 1.677 0 0 0
346 1 20.9185 17.76073765594583 1.677 0 0 0
348 1 20.918499999999998 14.919019630994496 1.677 0 0 0
350 1 22.149 15.629449137232335 1.677 0 0 0
366 1 22.149 17.050308149707995 1.677 0 0 0
368 1 23.3795 17.760737655945835 1.677 0 0 0
370 1 23.3795 14.919019630994498 1.677 0 0 0
372 1 24.61 15.629449137232335 1.677 0 0 0
380 1 24.61 17.050308149708 1.677 0 0 0
382 1 25.8405 17.760737655945835 1.677 0 0 0
384 1 25.8405 14.919019630994498 1.677 0 0 0
584 1 0.0 19.892026174659332 1.677 0 0 0
1130 1 3.6914999999999996 19.1815966684215 1.677 0 0 0
1134 1 2.4609999999999994 21.312885187134995 1.677 0 0 0
1146 1 2.4609999999999994 19.892026174659332 1.677 0 0 0
1148 1 1.2305000000000001 19.1815966684215 1.677 0 0 0
1152 1 0.0 21.312885187135 1.677 0 0 0
1075 1 7.382999999999999 21.312885187135 1.677 0 0 0
1102 1 7.382999999999999 19.892026174659332 1.677 0 0 0
1104 1 6.1525 19.1815966684215 1.677 0 0 0
1108 1 4.922000000000001 21.312885187134995 1.677 0 0 0
1128 1 4.922 19.892026174659332 1.677 0 0 0
1036 1 11.074499999999999 19.1815966684215 1.677 0 0 0
1040 1 9.844 21.312885187135 1.677 0 0 0
1069 1 9.844 19.892026174659335 1.677 0 0 0
1071 1 8.6135 19.1815966684215 1.677 0 0 0
970 1 14.765999999999998 21.312885187135 1.677 0 0 0
999 1 14.766 19.892026174659332 1.677 0 0 0
1001 1 13.535499999999999 19.1815966684215 1.677 0 0 0
1005 1 12.305 21.312885187135 1.677 0 0 0
1034 1 12.305000000000001 19.892026174659335 1.677 0 0 0
931 1 18.457499999999996 19.1815966684215 1.677 0 0 0
935 1 17.226999999999997 21.312885187134995 1.677 0 0 0
964 1 17.227 19.892026174659335 1.677 0 0 0
966 1 15.9965 19.1815966684215 1.677 0 0 0
865 1 22.149 21.312885187134995 1.677 0 0 0
894 1 22.149 19.892026174659335 1.677 0 0 0
896 1 20.918499999999998 19.1815966684215 1.677 0 0 0
900 1 19.688 21.312885187134995 1.677 0 0 0
929 1 19.688 19.892026174659335 1.677 0 0 0
826 1 25.8405 19.1815966684215 1.677 0 0 0
830 1 24.61 21.312885187134995 1.677 0 0 0
859 1 24.61 19.892026174659335 1.677 0 0 0
861 1 23.3795 19.1815966684215 1.677 0 0 0
1112 1 3.6915000000000004 23.4441737058485 1.677 0 0 0
1132 1 3.6914999999999996 22.023314693372832 1.677 0 0 0
1136 1 2.4609999999999994 24.154603212086332 1.677 0 0 0
1138 1 1.2304999999999993 23.4441737058485 1.677 0 0 0
1150 1 1.2304999999999993 22.023314693372832 1.677 0 0 0
1154 1 0.0 24.154603212086332 1.677 0 0 0
1077 1 7.383 24.154603212086336 1.677 0 0 0
1079 1 6.1525 23.4441737058485 1.677 0 0 0
1106 1 6.152499999999999 22.023314693372832 1.677 0 0 0
1110 1 4.921999999999999 24.154603212086332 1.677 0 0 0
1009 1 11.0745 23.4441737058485 1.677 0 0 0
1038 1 11.0745 22.023314693372836 1.677 0 0 0
1042 1 9.844000000000001 24.154603212086336 1.677 0 0 0
1044 1 8.613499999999998 23.4441737058485 1.677 0 0 0
1073 1 8.6135 22.023314693372836 1.677 0 0 0
972 1 14.766000000000002 24.154603212086332 1.677 0 0 0
974 1 13.535499999999999 23.4441737058485 1.677 0 0 0
1003 1 13.5355 22.023314693372832 1.677 0 0 0
1007 1 12.305 24.154603212086332 1.677 0 0 0
904 1 18.4575 23.444173705848495 1.677 0 0 0
933 1 18.4575 22.023314693372832 1.677 0 0 0
937 1 17.227 24.154603212086332 1.677 0 0 0
939 1 15.996499999999997 23.444173705848495 1.677 0 0 0
968 1 15.996500000000001 22.023314693372832 1.677 0 0 0
867 1 22.149 24.154603212086336 1.677 0 0 0
869 1 20.9185 23.4441737058485 1.677 0 0 0
898 1 20.9185 22.023314693372832 1.677 0 0 0
902 1 19.688000000000002 24.154603212086336 1.677 0 0 0
801 1 25.8405 23.4441737058485 1.677 0 0 0
828 1 25.8405 22.023314693372836 1.677 0 0 0
832 1 24.61 24.154603212086336 1.677 0 0 0
834 1 23.3795 23.4441737058485 1.677 0 0 0
863 1 23.3795 22.023314693372832 1.677 0 0 0
1087 1 3.6914999999999996 27.7067507432755 1.677 0 0 0
1114 1 3.6914999999999987 26.285891730799833 1.677 0 0 0
1116 1 2.4610000000000003 25.575462224561996 1.677 0 0 0
1118 1 2.4609999999999994 28.41718024951333 1.677 0 0 0
1120 1 1.230500000000001 27.706750743275496 1.677 0 0 0
1140 1 1.2305000000000001 26.285891730799833 1.677 0 0 0
1142 1 0.0 25.575462224561996 1.677 0 0 0
1144 1 0.0 28.417180249513333 1.677 0 0 0
1048 1 7.382999999999999 25.575462224561996 1.677 0 0 0
1050 1 7.383000000000001 28.417180249513336 1.677 0 0 0
1052 1 6.152499999999999 27.7067507432755 1.677 0 0 0
1081 1 6.1525 26.285891730799836 1.677 0 0 0
1083 1 4.922 25.575462224561996 1.677 0 0 0
1085 1 4.922 28.417180249513336 1.677 0 0 0
982 1 11.074499999999999 27.7067507432755 1.677 0 0 0
1011 1 11.0745 26.285891730799833 1.677 0 0 0
1013 1 9.844 25.575462224562 1.677 0 0 0
1015 1 9.844000000000001 28.417180249513333 1.677 0 0 0
1017 1 8.6135 27.7067507432755 1.677 0 0 0
1046 1 8.613500000000002 26.285891730799836 1.677 0 0 0
943 1 14.765999999999998 25.575462224561996 1.677 0 0 0
945 1 14.766 28.417180249513333 1.677 0 0 0
947 1 13.535499999999999 27.706750743275496 1.677 0 0 0
976 1 13.5355 26.285891730799833 1.677 0 0 0
978 1 12.305 25.575462224562 1.677 0 0 0
980 1 12.305000000000001 28.417180249513333 1.677 0 0 0
877 1 18.4575 27.706750743275496 1.677 0 0 0
906 1 18.457500000000003 26.285891730799833 1.677 0 0 0
908 1 17.227 25.575462224561996 1.677 0 0 0
910 1 17.227 28.417180249513333 1.677 0 0 0
912 1 15.9965 27.706750743275496 1.677 0 0 0
941 1 15.996500000000001 26.285891730799833 1.677 0 0 0
838 1 22.149 25.575462224561996 1.677 0 0 0
840 1 22.149 28.417180249513336 1.677 0 0 0
842 1 20.918499999999998 27.706750743275496 1.677 0 0 0
871 1 20.9185 26.285891730799833 1.677 0 0 0
873 1 19.688 25.575462224561996 1.677 0 0 0
875 1 19.688000000000002 28.417180249513333 1.677 0 0 0
784 1 25.8405 27.706750743275492 1.677 0 0 0
803 1 25.8405 26.285891730799833 1.677 0 0 0
805 1 24.61 25.575462224561996 1.677 0 0 0
807 1 24.61 28.41718024951333 1.677 0 0 0
809 1 23.3795 27.7067507432755 1.677 0 0 0
836 1 23.3795 26.285891730799833 1.677 0 0 0
1060 1 3.6914999999999996 31.969327780702496 1.677 0 0 0
1089 1 3.6915000000000004 30.548468768226833 1.677 0 0 0
1091 1 2.4610000000000003 29.838039261988996 1.677 0 0 0
1093 1 2.4610000000000003 32.67975728694034 1.677 0 0 0
1095 1 1.2304999999999993 31.969327780702496 1.677 0 0 0
1122 1 1.2304999999999993 30.548468768226833 1.677 0 0 0
1124 1 0.0 29.838039261988996 1.677 0 0 0
1126 1 0.0 32.67975728694033 1.677 0 0 0
1021 1 7.383 29.838039261988996 1.677 0 0 0
1023 1 7.383 32.67975728694033 1.677 0 0 0
1025 1 6.1525 31.9693277807025 1.677 0 0 0
1054 1 6.152500000000001 30.548468768226833 1.677 0 0 0
1056 1 4.921999999999999 29.838039261988996 1.677 0 0 0
1058 1 4.9220000000000015 32.67975728694034 1.677 0 0 0
955 1 11.074499999999999 31.969327780702493 1.677 0 0 0
984 1 11.0745 30.548468768226833 1.677 0 0 0
986 1 9.844 29.838039261988996 1.677 0 0 0
988 1 9.844000000000001 32.67975728694033 1.677 0 0 0
990 1 8.613499999999998 31.9693277807025 1.677 0 0 0
1019 1 8.6135 30.548468768226833 1.677 0 0 0
916 1 14.766 29.838039261988996 1.677 0 0 0
918 1 14.766000000000002 32.67975728694033 1.677 0 0 0
920 1 13.535499999999999 31.969327780702496 1.677 0 0 0
949 1 13.5355 30.548468768226833 1.677 0 0 0
951 1 12.304999999999998 29.838039261988996 1.677 0 0 0
953 1 12.305 32.67975728694033 1.677 0 0 0
850 1 18.4575 31.969327780702496 1.677 0 0 0
879 1 18.4575 30.548468768226833 1.677 0 0 0
881 1 17.227 29.838039261988996 1.677 0 0 0
883 1 17.227 32.67975728694034 1.677 0 0 0
885 1 15.996500000000001 31.969327780702496 1.677 0 0 0
914 1 15.996500000000001 30.548468768226833 1.677 0 0 0
813 1 22.148999999999997 29.838039261988996 1.677 0 0 0
815 1 22.149 32.67975728694033 1.677 0 0 0
817 1 20.918499999999998 31.969327780702496 1.677 0 0 0
844 1 20.9185 30.548468768226833 1.677 0 0 0
846 1 19.688 29.838039261988996 1.677 0 0 0
848 1 19.688 32.67975728694034 1.677 0 0 0
775 1 25.8405 31.9693277807025 1.677 0 0 0
786 1 25.8405 30.548468768226833 1.677 0 0 0
788 1 24.61 29.838039261988996 1.677 0 0 0
790 1 24.61 32.67975728694034 1.677 0 0 0
792 1 23.379499999999997 31.969327780702493 1.677 0 0 0
811 1 23.3795 30.548468768226833 1.677 0 0 0
1032 1 3.6914999999999996 36.23190481812949 1.677 0 0 0
1062 1 3.6915000000000013 34.81104580565383 1.677 0 0 0
1064 1 2.4609999999999985 34.100616299416 1.677 0 0 0
1067 1 1.2304999999999993 36.23190481812949 1.677 0 0 0
1097 1 1.230500000000001 34.81104580565383 1.677 0 0 0
1099 1 0.0 34.100616299416 1.677 0 0 0
994 1 7.382999999999999 34.100616299416 1.677 0 0 0
997 1 6.1525 36.23190481812949 1.677 0 0 0
1027 1 6.152500000000001 34.81104580565383 1.677 0 0 0
1029 1 4.922000000000001 34.100616299416 1.677 0 0 0
927 1 11.0745 36.23190481812949 1.677 0 0 0
957 1 11.0745 34.81104580565383 1.677 0 0 0
959 1 9.843999999999998 34.100616299416 1.677 0 0 0
962 1 8.613499999999998 36.23190481812949 1.677 0 0 0
992 1 8.613500000000002 34.81104580565383 1.677 0 0 0
889 1 14.766 34.100616299416 1.677 0 0 0
892 1 13.5355 36.23190481812949 1.677 0 0 0
922 1 13.535500000000003 34.81104580565383 1.677 0 0 0
924 1 12.305 34.100616299416 1.677 0 0 0
824 1 18.4575 36.23190481812949 1.677 0 0 0
852 1 18.4575 34.81104580565383 1.677 0 0 0
854 1 17.227 34.100616299416 1.677 0 0 0
857 1 15.9965 36.23190481812949 1.677 0 0 0
887 1 15.996500000000001 34.81104580565383 1.677 0 0 0
796 1 22.148999999999997 34.100616299416 1.677 0 0 0
799 1 20.918499999999998 36.23190481812949 1.677 0 0 0
819 1 20.918499999999998 34.81104580565383 1.677 0 0 0
821 1 19.688 34.100616299416 1.677 0 0 0
773 1 25.8405 36.23190481812949 1.677 0 0 0
777 1 25.840500000000002 34.81104580565383 1.677 0 0 0
779 1 24.609999999999996 34.100616299416 1.677 0 0 0
782 1 23.379499999999997 36.2319048181295 1.677 0 0 0
794 1 23.3795 34.81104580565383 1.677 0 0 0
2 1 0.0 1.420859012475665 5.031000000000001 0 0 0
4 1 0.0 0.0 5.031000000000001 0 0 0
11 1 1.2305 3.552147531189165 5.031000000000001 0 0 0
13 1 1.2305 2.1312885187135 5.031000000000001 0 0 0
15 1 2.461 1.420859012475665 5.031000000000001 0 0 0
17 1 2.461 0.0 5.031000000000001 0 0 0
32 1 3.6914999999999996 3.552147531189165 5.031000000000001 0 0 0
34 1 3.6914999999999996 2.1312885187135 5.031000000000001 0 0 0
36 1 4.922 1.420859012475665 5.031000000000001 0 0 0
38 1 4.922 0.0 5.031000000000001 0 0 0
61 1 6.1525 3.5521475311891653 5.031000000000001 0 0 0
63 1 6.1525 2.1312885187134993 5.031000000000001 0 0 0
65 1 7.382999999999999 1.420859012475666 5.031000000000001 0 0 0
67 1 7.382999999999999 0.0 5.031000000000001 0 0 0
96 1 8.613499999999998 3.552147531189166 5.031000000000001 0 0 0
98 1 8.613499999999998 2.1312885187135002 5.031000000000001 0 0 0
100 1 9.844 1.420859012475666 5.031000000000001 0 0 0
102 1 9.844 0.0 5.031000000000001 0 0 0
131 1 11.0745 3.5521475311891644 5.031000000000001 0 0 0
133 1 11.0745 2.1312885187135002 5.031000000000001 0 0 0
135 1 12.305 1.420859012475665 5.031000000000001 0 0 0
137 1 12.305 0.0 5.031000000000001 0 0 0
166 1 13.535499999999999 3.5521475311891653 5.031000000000001 0 0 0
168 1 13.535499999999999 2.1312885187134984 5.031000000000001 0 0 0
170 1 14.765999999999998 1.420859012475665 5.031000000000001 0 0 0
172 1 14.765999999999998 0.0 5.031000000000001 0 0 0
201 1 15.996499999999997 3.5521475311891653 5.031000000000001 0 0 0
203 1 15.9965 2.1312885187135002 5.031000000000001 0 0 0
205 1 17.226999999999997 1.420859012475665 5.031000000000001 0 0 0
207 1 17.227 0.0 5.031000000000001 0 0 0
236 1 18.457499999999996 3.5521475311891617 5.031000000000001 0 0 0
238 1 18.4575 2.1312885187135002 5.031000000000001 0 0 0
240 1 19.687999999999995 1.4208590124756633 5.031000000000001 0 0 0
242 1 19.688 0.0 5.031000000000001 0 0 0
271 1 20.918499999999995 3.5521475311891635 5.031000000000001 0 0 0
273 1 20.918499999999998 2.1312885187135002 5.031000000000001 0 0 0
275 1 22.148999999999997 1.4208590124756597 5.031000000000001 0 0 0
277 1 22.148999999999997 0.0 5.031000000000001 0 0 0
306 1 23.3795 3.55214753118916 5.031000000000001 0 0 0
308 1 23.3795 2.1312885187135002 5.031000000000001 0 0 0
310 1 24.61 1.4208590124756597 5.031000000000001 0 0 0
312 1 24.61 0.0 5.031000000000001 0 0 0
341 1 25.8405 3.55214753118916 5.031000000000001 0 0 0
343 1 25.8405 2.1312885187135002 5.031000000000001 0 0 0
7 1 0.0 5.683436049902665 5.031000000000001 0 0 0
9 1 0.0 4.262577037427 5.031000000000001 0 0 0
26 1 1.2305 6.393865556140499 5.031000000000001 0 0 0
28 1 2.461 5.683436049902665 5.031000000000001 0 0 0
30 1 2.461 4.262577037427 5.031000000000001 0 0 0
55 1 3.6914999999999996 6.393865556140499 5.031000000000001 0 0 0
57 1 4.922 5.6834360499026655 5.031000000000001 0 0 0
59 1 4.922 4.262577037426999 5.031000000000001 0 0 0
90 1 6.1525 6.393865556140499 5.031000000000001 0 0 0
92 1 7.382999999999999 5.6834360499026655 5.031000000000001 0 0 0
94 1 7.382999999999999 4.262577037427 5.031000000000001 0 0 0
125 1 8.6135 6.3938655561405 5.031000000000001 0 0 0
127 1 9.844 5.683436049902665 5.031000000000001 0 0 0
129 1 9.844 4.2625770374270004 5.031000000000001 0 0 0
160 1 11.074499999999999 6.393865556140499 5.031000000000001 0 0 0
162 1 12.305 5.683436049902665 5.031000000000001 0 0 0
164 1 12.305 4.262577037426999 5.031000000000001 0 0 0
195 1 13.535499999999999 6.393865556140499 5.031000000000001 0 0 0
197 1 14.765999999999998 5.6834360499026655 5.031000000000001 0 0 0
199 1 14.766 4.262577037426999 5.031000000000001 0 0 0
230 1 15.9965 6.393865556140499 5.031000000000001 0 0 0
232 1 17.226999999999997 5.683436049902662 5.031000000000001 0 0 0
234 1 17.226999999999997 4.2625770374270004 5.031000000000001 0 0 0
265 1 18.457499999999996 6.393865556140501 5.031000000000001 0 0 0
267 1 19.687999999999995 5.683436049902662 5.031000000000001 0 0 0
269 1 19.688 4.2625770374270004 5.031000000000001 0 0 0
300 1 20.9185 6.393865556140501 5.031000000000001 0 0 0
302 1 22.148999999999997 5.683436049902664 5.031000000000001 0 0 0
304 1 22.149 4.2625770374270004 5.031000000000001 0 0 0
335 1 23.3795 6.393865556140501 5.031000000000001 0 0 0
337 1 24.61 5.68343604990266 5.031000000000001 0 0 0
339 1 24.61 4.2625770374270004 5.031000000000001 0 0 0
365 1 25.8405 6.393865556140497 5.031000000000001 0 0 0
20 1 0.0 9.946013087329664 5.031000000000001 0 0 0
22 1 0.0 8.525154074854 5.031000000000001 0 0 0
24 1 1.2304999999999997 7.814724568616164 5.031000000000001 0 0 0
47 1 1.2304999999999997 10.656442593567498 5.031000000000001 0 0 0
49 1 2.4609999999999994 9.946013087329664 5.031000000000001 0 0 0
51 1 2.4609999999999994 8.525154074854 5.031000000000001 0 0 0
53 1 3.6914999999999996 7.814724568616165 5.031000000000001 0 0 0
82 1 3.6914999999999996 10.6564425935675 5.031000000000001 0 0 0
84 1 4.922 9.946013087329666 5.031000000000001 0 0 0
86 1 4.922 8.525154074854 5.031000000000001 0 0 0
88 1 6.1525 7.814724568616166 5.031000000000001 0 0 0
117 1 6.1525 10.6564425935675 5.031000000000001 0 0 0
119 1 7.383 9.946013087329664 5.031000000000001 0 0 0
121 1 7.383 8.525154074854 5.031000000000001 0 0 0
123 1 8.6135 7.814724568616164 5.031000000000001 0 0 0
152 1 8.613499999999998 10.656442593567498 5.031000000000001 0 0 0
154 1 9.844 9.946013087329664 5.031000000000001 0 0 0
156 1 9.844 8.525154074853997 5.031000000000001 0 0 0
158 1 11.0745 7.814724568616165 5.031000000000001 0 0 0
187 1 11.0745 10.656442593567498 5.031000000000001 0 0 0
189 1 12.305 9.946013087329664 5.031000000000001 0 0 0
191 1 12.305 8.525154074854 5.031000000000001 0 0 0
193 1 13.535499999999999 7.814724568616165 5.031000000000001 0 0 0
222 1 13.535499999999999 10.6564425935675 5.031000000000001 0 0 0
224 1 14.765999999999998 9.94601308732966 5.031000000000001 0 0 0
226 1 14.765999999999998 8.525154074854 5.031000000000001 0 0 0
228 1 15.996499999999997 7.814724568616162 5.031000000000001 0 0 0
257 1 15.996499999999997 10.6564425935675 5.031000000000001 0 0 0
259 1 17.226999999999997 9.946013087329662 5.031000000000001 0 0 0
261 1 17.226999999999997 8.525154074854 5.031000000000001 0 0 0
263 1 18.457499999999996 7.814724568616162 5.031000000000001 0 0 0
292 1 18.4575 10.6564425935675 5.031000000000001 0 0 0
294 1 19.688 9.946013087329662 5.031000000000001 0 0 0
296 1 19.688 8.525154074854001 5.031000000000001 0 0 0
298 1 20.918499999999998 7.814724568616162 5.031000000000001 0 0 0
327 1 20.918499999999998 10.656442593567501 5.031000000000001 0 0 0
329 1 22.148999999999997 9.946013087329662 5.031000000000001 0 0 0
331 1 22.149 8.525154074854001 5.031000000000001 0 0 0
333 1 23.379499999999997 7.814724568616164 5.031000000000001 0 0 0
357 1 23.3795 10.656442593567498 5.031000000000001 0 0 0
359 1 24.609999999999996 9.946013087329664 5.031000000000001 0 0 0
361 1 24.61 8.525154074853997 5.031000000000001 0 0 0
363 1 25.8405 7.81472456861616 5.031000000000001 0 0 0
379 1 25.8405 10.656442593567498 5.031000000000001 0 0 0
41 1 0.0 14.208590124756665 5.031000000000001 0 0 0
43 1 0.0 12.787731112280998 5.031000000000001 0 0 0
45 1 1.2304999999999997 12.077301606043164 5.031000000000001 0 0 0
76 1 2.461 14.208590124756665 5.031000000000001 0 0 0
78 1 2.461 12.787731112280998 5.031000000000001 0 0 0
80 1 3.6914999999999996 12.077301606043164 5.031000000000001 0 0 0
111 1 4.922 14.208590124756663 5.031000000000001 0 0 0
113 1 4.922 12.787731112281 5.031000000000001 0 0 0
115 1 6.1525 12.077301606043164 5.031000000000001 0 0 0
146 1 7.383 14.208590124756665 5.031000000000001 0 0 0
148 1 7.382999999999999 12.787731112280998 5.031000000000001 0 0 0
150 1 8.6135 12.077301606043164 5.031000000000001 0 0 0
181 1 9.844 14.208590124756665 5.031000000000001 0 0 0
183 1 9.844 12.787731112280998 5.031000000000001 0 0 0
185 1 11.074499999999999 12.077301606043164 5.031000000000001 0 0 0
216 1 12.304999999999998 14.208590124756661 5.031000000000001 0 0 0
218 1 12.305 12.787731112280998 5.031000000000001 0 0 0
220 1 13.535499999999999 12.07730160604316 5.031000000000001 0 0 0
251 1 14.765999999999998 14.208590124756661 5.031000000000001 0 0 0
253 1 14.765999999999998 12.787731112281 5.031000000000001 0 0 0
255 1 15.996499999999997 12.07730160604316 5.031000000000001 0 0 0
286 1 17.226999999999997 14.208590124756661 5.031000000000001 0 0 0
288 1 17.227 12.787731112281 5.031000000000001 0 0 0
290 1 18.4575 12.077301606043163 5.031000000000001 0 0 0
321 1 19.688 14.208590124756663 5.031000000000001 0 0 0
323 1 19.688 12.787731112281 5.031000000000001 0 0 0
325 1 20.918499999999998 12.077301606043163 5.031000000000001 0 0 0
351 1 22.148999999999997 14.208590124756663 5.031000000000001 0 0 0
353 1 22.148999999999997 12.787731112280998 5.031000000000001 0 0 0
355 1 23.379499999999997 12.077301606043163 5.031000000000001 0 0 0
373 1 24.609999999999996 14.208590124756663 5.031000000000001 0 0 0
375 1 24.61 12.787731112280998 5.031000000000001 0 0 0
377 1 25.840499999999995 12.077301606043164 5.031000000000001 0 0 0
70 1 0.0 17.050308149708 5.031000000000001 0 0 0
72 1 1.2305000000000001 16.339878643470165 5.031000000000001 0 0 0
74 1 1.2305000000000001 14.919019630994498 5.031000000000001 0 0 0
105 1 2.4610000000000003 17.050308149708 5.031000000000001 0 0 0
107 1 3.6915 16.339878643470165 5.031000000000001 0 0 0
109 1 3.6915 14.919019630994498 5.031000000000001 0 0 0
140 1 4.921999999999999 17.050308149708 5.031000000000001 0 0 0
142 1 6.1525 16.339878643470165 5.031000000000001 0 0 0
144 1 6.152499999999999 14.919019630994498 5.031000000000001 0 0 0
175 1 7.383 17.050308149708 5.031000000000001 0 0 0
177 1 8.613499999999998 16.339878643470165 5.031000000000001 0 0 0
179 1 8.6135 14.919019630994498 5.031000000000001 0 0 0
210 1 9.844 17.050308149708 5.031000000000001 0 0 0
212 1 11.074499999999999 16.33987864347016 5.031000000000001 0 0 0
214 1 11.074499999999999 14.919019630994498 5.031000000000001 0 0 0
245 1 12.304999999999998 17.050308149708 5.031000000000001 0 0 0
247 1 13.535499999999997 16.33987864347016 5.031000000000001 0 0 0
249 1 13.535499999999999 14.919019630994498 5.031000000000001 0 0 0
280 1 14.766 17.050308149708 5.031000000000001 0 0 0
282 1 15.996499999999997 16.33987864347016 5.031000000000001 0 0 0
284 1 15.9965 14.9190196309945 5.031000000000001 0 0 0
315 1 17.226999999999997 17.050308149708002 5.031000000000001 0 0 0
317 1 18.457499999999996 16.33987864347016 5.031000000000001 0 0 0
319 1 18.4575 14.9190196309945 5.031000000000001 0 0 0
345 1 19.688 17.050308149707995 5.031000000000001 0 0 0
347 1 20.918499999999998 16.339878643470165 5.031000000000001 0 0 0
349 1 20.918499999999998 14.919019630994496 5.031000000000001 0 0 0
367 1 22.149 17.050308149707995 5.031000000000001 0 0 0
369 1 23.379499999999997 16.339878643470165 5.031000000000001 0 0 0
371 1 23.3795 14.919019630994498 5.031000000000001 0 0 0
381 1 24.61 17.050308149708 5.031000000000001 0 0 0
383 1 25.8405 16.339878643470158 5.031000000000001 0 0 0
385 1 25.8405 14.919019630994498 5.031000000000001 0 0 0
1129 1 3.6914999999999996 19.1815966684215 5.031000000000001 0 0 0
1131 1 3.6915000000000004 20.602455680897165 5.031000000000001 0 0 0
1133 1 2.4609999999999994 21.312885187134995 5.031000000000001 0 0 0
1145 1 2.4610000000000003 18.47116716218366 5.031000000000001 0 0 0
1147 1 1.2305000000000001 19.1815966684215 5.031000000000001 0 0 0
1149 1 1.2305000000000001 20.602455680897165 5.031000000000001 0 0 0
1151 1 0.0 21.312885187135 5.031000000000001 0 0 0