LAMMPS data file via write_data, version 29 Oct 2020, timestep = 35693

2816 atoms
1 atom types

0.0 157.504 xlo xhi
0.0 36.48765944037512 ylo yhi
0.18995362034080543 35.81004637965853 zlo zhi

Masses

1 18.015

Atoms # atomic

7 1 48.71940636034233 1.0500306582655892 1.3769264844055487 0 1 0
60 1 48.293545937928066 3.2293639687983227 3.0751446762042134 0 0 0
114 1 47.47581387069402 5.800477185096381 2.104452746305463 0 0 1
385 1 50.95756573204342 6.31374491973575 0.9469256426024566 0 0 0
321 1 51.05264881550129 4.031929346273028 2.975188321914789 0 0 0
319 1 49.93759935365304 9.020301435231335 1.4697054767801132 0 0 1
100 1 47.02214808955305 8.829291539585638 0.9594375261803921 0 0 0
98 1 47.52080917258018 11.443475362219369 35.72546814535231 0 0 -1
24 1 45.71958899344678 13.616367981211603 35.01527897372631 0 0 -1
108 1 44.6466252184829 0.22822863529923657 9.168028856587005 0 1 0
861 1 49.88927858337163 13.155551679950973 0.42631241858445407 0 0 0
157 1 48.93537236788453 15.910495120049026 1.2412056521278185 0 0 0
13 1 46.06546343465541 15.583408701217474 1.2937304615277085 0 0 1
1061 1 52.348939203575604 2.3504430399474554 27.908349417905775 0 1 0
106 1 47.471945867953906 3.1560881815622697 5.860849739011065 0 0 0
129 1 51.88734206957937 5.437834602442264 5.457163000665618 0 0 0
86 1 51.7920892867379 7.9046644636664105 3.7941020366413873 0 0 1
58 1 48.886075044297264 7.3546232112046805 4.165887115936338 0 0 0
375 1 51.66930544091578 2.670629861795845 34.056553069810576 0 0 -1
92 1 48.19192766074427 12.073902223504328 4.936122463955824 0 0 0
1 1 50.15672966371899 11.577033258221629 2.8592049143305664 0 0 0
903 1 50.94656346943564 0.5051419664894383 32.23988357886349 0 1 -1
64 1 49.31144535983955 0.10043667115700024 19.367654457370676 0 1 0
95 1 47.48033746320558 17.40197729867185 3.19674092457592 0 0 0
1083 1 51.732546449766964 15.428746748962334 1.8478297531127823 0 0 0
620 1 50.560297323030525 14.089483940719393 32.1379798421609 0 0 0
33 1 49.32698208572597 1.8805641856076085 8.35456778180219 0 0 0
183 1 47.40546940428053 17.845546236606523 10.582644416185165 0 0 0
118 1 49.043531279540716 5.505861896742265 6.13384451830153 0 0 0
126 1 46.44453767879232 2.439299238915404 9.378496364592097 0 0 0
264 1 50.59461842296822 5.7529419761545215 8.485690587640741 0 1 0
43 1 48.54888079542847 10.639465953138822 33.238812075182146 0 0 -1
135 1 50.37152931803655 7.741752534071025 10.287859090522144 0 0 0
127 1 49.39851036100715 9.621610940867086 5.954444231260542 0 0 0
138 1 49.377927962956086 13.72180360828803 6.704907715938712 0 0 0
99 1 52.10479095194534 13.463863181494865 5.902684786223018 0 0 1
232 1 48.93279036179235 16.426197000654703 5.486365633913088 0 0 0
42 1 52.45935365804139 8.246136933906959 33.983001196843546 0 0 -1
75 1 48.099159168416584 8.16645901168512 31.88090602916575 0 0 0
327 1 51.14307066905996 1.7056888167292223 14.958278786421321 0 1 0
21 1 48.63897629595471 5.0586131704792185 35.16741802607799 0 1 0
130 1 46.00124341743093 4.627284230626271 11.226229755467498 0 1 0
107 1 49.22858415569276 2.0932284700929213 12.695660868836978 0 0 0
393 1 50.54852243640013 3.2950523044682267 10.300757263064181 0 0 0
123 1 48.03969066895801 6.496556736392182 11.864461207839712 0 0 0
425 1 51.98747412204797 0.6531982045009398 10.446344314841145 0 1 0
121 1 49.477264756326 9.896972138602582 8.648987128454372 0 0 0
137 1 47.410459727407606 8.878096800210338 13.294658308099493 0 0 0
102 1 52.07870513237013 10.514275230731883 10.519799863240266 0 0 1
103 1 49.15652559423971 12.61671556709903 9.305736648355625 0 0 0
51 1 48.48308610183849 13.490748515373216 12.057420443189 0 0 0
105 1 51.63878354168884 13.646563420870928 9.855568083652111 0 0 0
263 1 48.90708655646431 17.806828981717246 8.0322702767011 0 0 0
160 1 51.169690379746946 16.33288567282387 9.61047648318551 0 0 0
117 1 49.82586211396868 2.8434001459312928 17.28094948784005 0 1 0
1184 1 49.15285882502243 14.696474475869511 19.02256378683832 0 0 0
23 1 47.457175121082756 3.770160338548541 13.70491079084001 0 0 0
97 1 51.378662434374924 8.79876525531626 14.963519778711666 0 0 0
115 1 48.86483067047307 5.337929184439872 15.827972704872963 0 1 0
125 1 50.45171486936123 6.0995345838632025 13.487866170636117 0 0 0
90 1 50.52974227065834 12.791466697621244 14.00445569650721 0 0 0
27 1 52.15986948214345 4.420035374174202 32.07106836428119 0 0 0
87 1 48.05196121695544 16.27347678843568 12.76305165665913 0 0 0
200 1 48.148710763284484 17.31217162636194 19.962720460216207 0 0 0
270 1 50.783923635281056 16.774831370708977 12.37464117018156 0 0 0
237 1 46.15562852291152 2.1345063708498753 15.474619289611288 0 1 0
683 1 51.164605648912456 1.4531439909341703 23.855484457149675 0 0 0
239 1 51.48376560506843 17.870548603266254 5.7155870569370455 0 0 0
804 1 51.32904252157735 2.125979119522515 19.74403136822926 0 1 0
434 1 51.6534466721083 6.729918074181566 16.681236755796437 0 0 0
94 1 48.84715727719902 7.256805140023355 18.30533755229537 0 0 0
78 1 48.795411179882265 9.075695335607831 15.847340994855546 0 1 0
74 1 46.656578526131 7.138147788685837 34.07690488663356 0 0 -1
93 1 48.22089713304451 12.301345267680485 18.64542024625132 0 0 0
112 1 49.915262379849175 11.468514761514331 16.58062214385834 0 0 0
89 1 51.77661212606033 14.44165346661 18.974580008779476 0 0 0
109 1 47.74786360371178 0.35749169091355765 11.0022212892254 0 1 0
70 1 47.62465740571712 17.313531981600892 15.254516476331686 0 0 0
1174 1 49.60714573144192 16.55326720470778 17.07026753359235 0 0 0
44 1 46.977651086010454 2.7310490875633406 18.157208443630704 0 1 0
195 1 46.96653186044998 0.8009883086917986 20.169587754262334 0 1 0
29 1 51.112042359180634 3.8504444929517274 22.027042492093695 0 0 0
81 1 47.622617472053165 5.137366200711588 19.59049856841407 0 1 0
80 1 50.283845297478024 8.39225099666769 20.48104789193236 0 0 0
73 1 49.939515010813636 11.080398837344383 20.322512525559812 0 0 0
158 1 49.004534958775416 2.494322251707846 34.57836865526967 0 1 -1
230 1 49.48976936183887 14.623684557590915 21.949971872304637 0 0 0
623 1 49.262575505609476 11.692595987236821 29.18734574063005 0 0 0
62 1 47.43465775773217 2.4764401628270343 22.382635151319082 0 1 0
47 1 50.0536379001125 2.3733380453849313 26.153242506387738 0 0 0
82 1 48.78582118792758 5.25315668350381 22.368880999972582 0 0 0
46 1 47.459552433846234 5.866366482416517 25.18983577899961 0 0 0
19 1 50.836047844636056 7.889071321814469 23.221438234052282 0 0 0
2 1 51.10915947975714 13.095183624043107 25.284011954024677 0 0 0
77 1 51.8406584807957 10.426476286775326 23.993660537527695 0 0 0
54 1 49.45165649102237 12.139105135718877 22.61960148387093 0 0 0
48 1 47.18300416481035 0.2425064921971066 24.277942703098716 0 0 0
236 1 48.37421535371903 16.283550219500054 24.10209282060621 0 0 0
187 1 47.574438019026566 1.0495937027631557 26.956309506656215 0 1 0
283 1 51.17427587208826 5.389752140815649 28.02510758997621 0 0 -1
1416 1 50.566240975757694 2.830667601074722 30.3889307133944 0 1 0
8 1 47.501003675445425 3.9049210768880394 27.30530582342008 0 0 -1
4 1 50.40553392919587 4.896781079094335 25.3497726469773 0 0 -1
49 1 48.77246830004312 8.450736829955327 25.293605945791466 0 0 0
18 1 50.366577522484164 8.084697965965857 27.74583798439799 0 0 0
22 1 48.10837193091988 17.168597976243422 32.75016247996012 0 1 -1
84 1 50.39379784661829 9.374515584597276 30.027408752691272 0 0 0
79 1 47.86566221327997 11.044260654948156 24.482604386436797 0 1 0
136 1 52.41935795765339 9.605964312535804 5.854915414918417 0 0 0
191 1 48.85915392921596 12.393130992667704 26.475361991457515 0 0 0
37 1 47.77981131837079 17.289389472453216 26.905890296679896 0 0 0
190 1 51.60238066436386 18.035230329067453 0.3553845132587563 0 0 0
280 1 52.016598849621836 12.559646531920421 33.97713156973477 0 0 0
12 1 46.33900664997914 15.028940313227288 32.66120074125141 0 0 0
895 1 47.98785311354291 2.221953072754323 31.841696670790217 0 1 -1
76 1 50.688198958614066 10.088115973135766 34.825016317396845 0 1 -1
28 1 49.55819364363204 5.9853725568326075 30.445114494704896 0 0 0
782 1 47.54783853995245 4.292078913722793 29.9148120689558 0 0 0
17 1 50.14306735756147 6.538508089616133 33.4563705705532 0 0 0
52 1 50.73569362321235 17.096645630884154 31.46735423897625 0 0 0
34 1 48.11674901532834 12.991460264621205 31.660555662461974 0 0 -1
726 1 51.7523589852031 13.121800704719872 29.408615903352334 0 0 0
39 1 51.570521260495916 15.926621726209003 28.789903018705154 0 0 0
167 1 48.994190851946655 18.082221160282025 35.137068131906716 0 0 0
234 1 51.063583701356 0.24736255833102386 2.462938097831613 0 1 0
622 1 50.663498200131116 17.738153781868256 20.933119336795404 0 0 0
223 1 50.440623117308206 2.315812440271379 5.545837732580606 0 1 1
122 1 49.93150387415295 10.239045971589777 12.599202752840622 0 0 0
53 1 50.45476944400084 16.056570601997304 25.885249523872677 0 0 0
1060 1 47.72626357078202 0.14246209647959515 5.530975328137949 0 0 0
131 1 52.47352904093933 5.278575921334247 11.79498500262505 0 0 0
155 1 47.018648583987655 19.766974088678964 1.0364868182126719 0 0 1
860 1 50.67218989982695 22.116003815279043 0.6155138170411494 0 0 0
258 1 48.286702169573445 21.840634255537463 2.139863070900587 0 0 0
215 1 48.38684187133147 24.93947179670889 0.6849189902986804 0 -1 1
878 1 49.5881924741936 28.922278218539038 1.096463224701096 0 0 0
233 1 48.123867608284236 33.511099058294015 33.88247800647132 0 0 0
175 1 47.55807526035798 30.923158649789894 1.4180480828537443 0 0 0
30 1 48.70666115948809 33.18285196831166 2.6068341480526933 0 -1 1
154 1 49.42072418072846 18.441052542841025 29.11436072771585 0 0 -1
992 1 50.80790088032324 27.136375493469224 15.329616784483003 0 -1 0
116 1 51.02206143902764 35.455414641302696 15.887553061666534 0 0 0
150 1 48.80623853720123 19.69720432827024 4.211904377973132 0 -1 0
951 1 45.93080823123054 27.115807053463712 4.096185526835078 0 0 0
196 1 46.757158617544285 24.482032927008113 2.9688718461926267 0 0 1
260 1 49.23999018167832 25.09077425530592 4.189863429324911 0 -1 0
168 1 48.58752937038417 27.661970733948205 3.4391630037743606 0 0 0
214 1 47.7474034084221 30.51021314413322 5.904920533371667 0 0 1
140 1 47.17270627672066 35.346725203499 3.000139058897184 0 -1 1
893 1 45.79311187293244 30.082118834797235 3.7703802431207016 0 0 1
172 1 51.7934837928733 21.049143865683714 30.499120364631924 0 0 0
314 1 51.92200578898332 22.936604901245985 32.591249362548844 0 0 -1
240 1 47.92625897337243 20.532295914720148 6.590082985748748 0 0 0
248 1 50.1445201470251 20.833113538425952 8.683340027814518 0 0 0
261 1 48.82107067226964 23.460010169725578 6.857104062735738 0 0 0
197 1 50.76468634955204 25.896383759216164 8.166563518290394 0 0 1
267 1 47.33377226654724 25.893055883087687 6.6546719403458106 0 0 0
266 1 50.20099148548932 27.61978820611768 5.971879180225293 0 0 0
984 1 51.55588888405804 28.53647321231753 9.503794089766354 0 0 0
179 1 44.953420046743574 29.85357539158582 8.746402786144163 0 0 1
171 1 46.970918158023146 27.87317736983921 9.081399416098296 0 0 1
169 1 49.12842789751228 29.326128654978838 8.06948282257949 0 -1 0
271 1 46.185894709056655 32.22432947971715 7.593067400476641 0 0 1
255 1 50.82356927852414 33.38571227095108 7.457675053343312 0 0 0
265 1 49.5976768674343 32.42712431493762 4.8792900563499435 0 0 0
909 1 46.33392864712028 35.24774728555328 7.327716747199869 0 0 0
1007 1 48.64205839019662 35.258944020239106 8.686721484456468 0 0 0
145 1 51.63049172499178 19.198603752862006 33.28853996410021 0 0 0
259 1 48.98164789836686 20.109058662549508 11.025136978347138 0 0 0
1147 1 49.67669758194051 35.58090924492322 24.120014689826693 0 0 0
272 1 50.312997943396645 23.377322808210504 9.82599053041261 0 -1 0
251 1 47.57518395608214 26.735114735048235 11.494378695005539 0 0 0
254 1 48.28208517780131 23.908418486385546 11.392582790958107 0 0 0
246 1 45.7044497776739 28.380559805334123 12.969203222624847 0 0 0
257 1 50.17581245019948 27.74309204250614 12.188187474180166 0 0 0
1038 1 50.079016103740514 30.63246475062585 12.341692978667487 0 0 0
225 1 45.11850421608654 30.424219369109828 11.416525550344717 0 0 0
243 1 46.60978769034651 32.801500523810674 10.481529631223061 0 0 0
35 1 49.54946880315647 31.585819659871916 9.485814942182886 0 -1 0
269 1 45.62566915628036 35.011849469576624 11.532834375219986 0 -1 0
1049 1 51.45442833105679 34.07059988346403 10.529530227260821 0 0 0
217 1 50.51863575098841 19.40972830267396 13.165410179037892 0 0 0
228 1 46.878317462398556 21.651040126903627 12.180568898758846 0 0 0
213 1 46.83578862907183 21.571896040004248 15.021587056441986 0 0 0
220 1 49.07549621862434 20.08855491938957 15.443649965111955 0 0 0
1212 1 51.81897008582615 33.089956260908615 24.800405079985026 0 0 0
227 1 49.539849524285394 24.880488515463572 13.71781073596491 0 0 0
242 1 48.3502631430503 28.634046050816114 14.292252273127005 0 0 0
189 1 44.68268274559015 28.516770192836717 15.557108683057185 0 0 0
1031 1 49.987987880384004 30.350444221110624 16.452978522047918 0 0 0
224 1 48.496262252026305 33.27400036350408 12.65115718181692 0 0 0
253 1 47.922701255465356 31.670374857811545 14.728022781563334 0 0 0
1149 1 51.695163171952885 30.9893432574148 14.625969357262813 0 0 0
226 1 45.43083536052554 33.67913682206263 14.068407267965656 0 0 0
83 1 48.75923763135948 35.87591278581619 13.944661949066347 0 -1 0
1099 1 51.448599837731905 33.77181926609257 13.567949880559961 0 0 0
218 1 45.920418045602084 19.389636835007998 16.45769100864096 0 0 0
212 1 47.537856121654556 19.83145622752436 18.845980787337794 0 0 0
182 1 50.13212926453395 19.235646940394815 17.950849296930006 0 0 0
235 1 47.456826878278164 24.29507776596797 15.801541627114293 0 0 0
1025 1 52.051468939436624 25.271353570031813 11.98371303488668 0 0 0
1146 1 46.95194840352907 27.19142699141591 16.350674633385413 0 0 0
229 1 48.42802706847711 26.956238027443295 18.590503632015217 0 0 0
147 1 50.814644550565745 28.200060350788284 18.192433772508775 0 0 0
831 1 52.200401907061604 35.62381894721022 20.181981617805103 0 0 0
1154 1 45.74402601453599 31.46111081962479 16.3027999123637 0 0 0
221 1 47.26085275846102 29.8568170167733 18.038788436514423 0 0 0
50 1 49.908367347957196 32.048593576781826 18.903319579978497 0 0 0
222 1 46.17027693332866 34.16961677238696 17.55379058906633 0 0 0
823 1 50.82916728651246 34.54427623156482 33.91468738710769 0 -1 -1
673 1 48.760963586531346 34.376566459490185 17.402921839083636 0 -1 0
1302 1 52.31209182453573 23.940822077132196 27.52613839969541 0 0 -1
1048 1 51.47164093987766 36.27638901724723 7.890432820487985 0 0 0
245 1 48.7697905391031 23.74131012095334 18.14436274905086 0 0 0
201 1 47.915081069606316 22.354535581776677 20.201165345803712 0 0 0
192 1 50.82256152156992 32.010145372339416 31.058111450549273 0 0 0
1072 1 51.60840401141527 23.709144334465883 18.542309544009022 0 0 0
219 1 47.749288821699146 27.8795055363222 21.126149288382592 0 0 0
866 1 50.837730467972726 29.395963128312676 21.163780689999154 0 0 0
1124 1 48.286962948623064 30.7688811105105 20.603739622679843 0 0 0
104 1 47.18105069260462 33.103057962328 21.749028665339054 0 -1 0
681 1 49.53269347568831 34.50648371426499 21.40849390714239 0 -1 0
63 1 45.63291281861585 34.69918443916862 20.30678296759531 0 -1 0
366 1 46.415189635692535 19.730255257311047 27.11809191288866 0 0 0
205 1 47.87648784534257 21.074375809951874 23.506392473685203 0 0 0
1192 1 49.907307872378794 22.920916304708793 22.507206762151036 0 0 0
211 1 48.36066309468937 24.9686166598208 23.761541944714047 0 0 0
1015 1 50.60469423367362 24.66690592437407 25.461340384179856 0 0 0
1245 1 49.939142636808924 27.386790059884504 23.16141130634779 0 0 0
194 1 52.33979603820576 26.20247128414719 23.071705379240985 0 0 0
156 1 47.54148465832502 29.66060191959162 26.84625988217771 0 -1 0
209 1 49.81029679967524 28.821280140448433 25.538982571183375 0 0 0
1265 1 51.17770958123296 32.336431382040935 22.27225815001824 0 -1 0
198 1 49.616507152340695 34.01627589102099 26.50456278761691 0 0 0
1367 1 45.89631250216297 34.208922749981745 24.242762393212725 0 -1 0
932 1 51.172074288764485 34.10800115645998 1.1751040977044425 0 0 0
181 1 47.78486744412537 22.102595700512186 26.189824406439737 0 0 0
930 1 52.10230030393005 19.0433536968225 28.166457325651802 0 0 -1
180 1 46.64311407496641 24.59998439264125 25.740525977368566 0 0 0
716 1 50.50091560990083 21.598865162745543 26.353650173994374 0 0 -1
178 1 46.65019429080297 27.378405175875585 30.513563477932482 0 0 0
151 1 46.86327747178541 26.30392667744011 27.89681865015709 0 0 0
1389 1 51.33308476467636 24.818491819979023 0.6810137857748009 0 0 1
1294 1 49.668987621581245 26.457581510353048 27.08314025459104 0 0 0
164 1 47.98616610042577 29.4975984225165 29.38702215835016 0 -1 0
146 1 50.67239087794366 35.8360549022797 28.1708371484316 0 0 0
177 1 47.18581012224118 32.57660779570018 26.31991481892169 0 0 0
159 1 45.44425774314143 33.32324394110637 28.326440279596405 0 0 0
184 1 47.07879027805632 20.6683913054124 29.790808088394037 0 0 0
163 1 47.373511832158506 19.71226940132857 32.664292623653914 0 0 0
896 1 51.89361724615114 31.83408369054797 33.53342071436916 0 0 -1
174 1 49.25257763516594 24.71626305059549 29.556924758146348 0 0 0
774 1 49.34138515080899 21.90451428711796 29.165589839918084 0 0 -1
149 1 45.75478101120054 27.7895552921981 33.26080936190206 0 0 0
176 1 49.96565899046554 27.689701005480522 32.491325286165335 0 0 0
199 1 51.86584176977533 25.401483003138875 30.68898445481447 0 0 0
161 1 46.19634297198629 30.38528955610872 32.82137627183081 0 0 0
173 1 50.723695665999706 29.248324541179016 30.410245277507702 0 0 -1
244 1 46.762266415032926 31.687236809740362 30.27051465207486 0 -1 -1
210 1 46.36699372763298 36.05452465812651 15.175182863381636 0 -1 0
143 1 48.739713175909415 36.1237123748952 30.340468432515184 0 0 0
206 1 52.133969892731585 30.556023894253737 25.831350571747507 0 0 0
10 1 46.47952717854451 35.84930659938835 28.689851593643713 0 -1 -1
207 1 49.54219709442938 18.673327195802855 23.325542571629427 0 0 0
216 1 52.41882379743809 29.241202962752965 5.472420109024662 0 0 0
166 1 45.705593767322696 21.382956740610553 34.61416451601096 0 0 0
887 1 48.178737993531115 25.40359000611218 32.03005560116173 0 0 0
913 1 51.5546375804232 20.58062877251682 4.348943334031835 0 0 0
1337 1 49.67734524216642 21.213615265331004 33.92647235482874 0 0 0
139 1 47.911447858929286 23.408450037570198 34.152591570592314 0 0 0
1405 1 48.22275772988478 27.36235398430422 34.800892840019124 0 0 0
202 1 48.25877764338803 33.48445602273125 31.180482856023378 0 -1 -1
931 1 48.43823693420211 30.807446318741967 34.09381879946244 0 0 -1
186 1 51.729794554593916 19.116926966569224 25.0963201518952 0 0 0
148 1 51.52106510736138 29.302153909075276 34.563736539669485 0 0 -1
1224 1 52.183910416066745 24.05467304514234 21.252162856494973 0 0 0
247 1 52.29964102744322 21.123754840066983 17.968654613665844 0 0 0
134 1 52.3402191749251 19.538959484527687 7.7849977322455235 0 0 0
142 1 50.36207492416515 22.602469920866753 15.513815416188478 0 0 0
873 1 51.61111829865521 23.442181553767004 5.184711237753307 0 0 0
1356 1 51.914202242099044 33.22902757140674 28.989723102252167 0 0 0
1328 1 51.99221924201378 27.24143988198473 28.44064718435218 0 0 0
69 1 50.71135285391496 35.74491893665892 4.95607710489646 0 -1 0
1286 1 78.73638900971584 16.02557571339857 30.3488744362053 0 0 0
451 1 58.05611888150964 2.5480017946174836 3.6841154914172556 0 0 0
826 1 71.03287080579622 17.669066511589534 16.932084966418305 0 0 0
56 1 52.770110894568504 5.8398897204758216 24.244563468034656 0 0 0
133 1 53.35293043086543 14.094229501346165 0.2584604677459903 0 0 0
676 1 64.35094210515126 0.9636787638780446 34.79525964255221 0 0 0
1381 1 65.73893216381447 2.6766023232732197 0.641861460253607 0 1 1
898 1 68.88344655841374 0.474074886284929 2.0834861171293917 0 1 0
857 1 74.1023131170191 3.000177586556543 1.5932154707934427 0 1 1
1310 1 60.304932163010946 0.700447384286769 23.144714923486184 0 0 0
6 1 54.23215122917082 7.626749537195331 25.42630432067957 0 1 0
740 1 53.619694307151974 6.294827363162948 0.7230163320995805 0 0 1
26 1 58.7626344715565 3.584544018092655 35.518331004264816 0 0 0
276 1 60.76195819976582 2.669798669498857 3.670868630779108 0 1 0
752 1 61.063360604433804 2.9782138000847644 0.9898164663631839 0 0 0
741 1 63.5274211601178 4.341585448675087 0.48896282579571304 0 1 0
392 1 69.99081364718924 3.060496337346904 1.3422328253235005 0 0 1
791 1 76.65514643029658 6.514803595037985 2.5615940823575305 0 1 1
789 1 78.09907932776339 1.614650661772895 2.395043168536167 0 1 1
16 1 55.237827014133806 6.178121840816959 3.1057232015625207 0 1 0
340 1 57.67844498857382 4.811365013354521 2.3389132622569053 0 0 0
743 1 61.4082831684685 8.322387620229973 1.8639662012812908 0 1 1
296 1 58.84182341699342 7.620707204189547 0.8367174500141932 0 0 0
376 1 63.90321233830389 7.102338041100475 1.430315026808298 0 1 1
802 1 73.18256693081162 7.284467946421187 35.15316294631696 0 0 -1
906 1 73.91451158227218 5.682379139583812 1.5505498580363615 0 1 0
326 1 76.92090248102217 3.7125898127951986 1.0712647466584704 0 1 0
576 1 53.50002527241551 5.40253024404935 21.427249093180464 0 0 0
15 1 57.695349373244895 9.413649628407873 7.074199856280157 0 1 0
294 1 57.35641604815227 8.078608019364008 3.6612879675412593 0 0 0
793 1 60.75255294583972 11.132021436477809 1.2418439982490197 0 0 0
358 1 64.67481895003694 10.77301517999305 3.7830970602895535 0 0 0
744 1 68.17103852096913 10.199663322405911 34.70305802495538 0 1 -1
800 1 66.34831346869349 8.288750206418955 2.334948319035627 0 0 0
696 1 72.63408696315301 9.835090753532326 1.4683088188041982 0 0 1
1959 1 77.06047215749209 10.578835211893251 3.3293679534819876 0 0 0
759 1 54.42832901518634 12.37334754368464 2.067607779465181 0 1 0
85 1 57.618221572910684 14.870983962310554 2.39100158696431 0 0 0
432 1 60.03786410571082 14.645158141552988 4.033032438139668 0 0 1
809 1 61.968376841303865 13.618341686215514 1.861779514690255 0 0 1
288 1 67.41473796611845 13.841675629680271 35.36590640003785 0 1 -1
398 1 69.15499118227494 11.852295301799147 1.166769203965611 0 0 0
811 1 70.62884445772619 14.111802261548325 0.765213844729871 0 0 0
277 1 73.05461631274939 12.679033801022184 1.2176697909039877 0 0 0
754 1 76.36869380098089 13.396153232169379 2.4315536790924255 0 0 1
41 1 55.57135353486469 16.398604834355602 3.3805733729164773 0 0 1
342 1 59.23898942987435 17.158931523782872 0.8104795791708148 0 0 0
1379 1 61.20801033353646 0.22633453841456486 5.226999909088349 0 1 0
311 1 61.700054644217786 15.906273906504198 0.2807044111608268 0 0 0
339 1 55.501001800973825 10.16182864434003 4.848354256391998 0 0 0
287 1 64.46485722703841 14.153873989769785 0.602816009354316 0 0 0
310 1 67.50125451082485 16.67975737260664 35.45931313902589 0 0 -1
312 1 68.04185558477835 17.019117443749817 2.5181060373764095 0 1 0
298 1 70.87802472953554 16.726826354568047 2.10327245897461 0 0 0
519 1 52.875866662262965 13.446191643319889 16.54718844083494 0 0 0
25 1 54.47597456741903 0.4869076670566818 4.565022218870058 0 0 0
1724 1 77.45997530301669 7.22842481030604 29.40241023263963 0 0 0
284 1 62.119903848124345 2.3684630787504504 7.212913868093966 0 0 0
1275 1 65.29774046451261 1.5952644027383258 4.591647298056956 0 0 0
953 1 66.12737082718755 3.7618198353015035 3.454678814233336 0 0 1
367 1 70.24375616821209 3.3743351441091125 6.059685121394115 0 1 0
1515 1 75.64572640569791 0.8011496392509546 5.7951515089368035 0 1 0
2515 1 78.38348543484497 0.8692532176270077 5.131533467146129 0 0 1
386 1 55.39341152526174 4.179734699473496 7.113443188443953 0 0 0
329 1 54.23682768207973 3.8135633137858407 4.540835284256203 0 0 0
775 1 57.68791435677407 2.87375685778215 6.742475526998274 0 0 0
325 1 63.77623100356072 5.5792060738774225 4.15460477592147 0 1 0
724 1 68.42439142671091 4.760384265290839 4.570118636671545 0 1 1
910 1 73.52748776450437 1.7510390443768338 4.192863598173013 0 1 0
677 1 70.78173369919533 5.575095018612264 2.9034850214476413 0 0 0
755 1 76.20635028212254 5.112435779304468 6.619488607067334 0 0 0
250 1 52.59730881381588 17.404699567137325 16.42550894646055 0 0 0
841 1 57.06961501289701 6.595001204072827 7.374184915034095 0 0 0
799 1 61.78485943547564 4.553503174244233 5.583404874802867 0 0 1
394 1 59.455742696306885 6.521153250325157 4.016940920792768 0 0 0
332 1 69.06584244640226 7.606715025962753 1.4822841343799003 0 1 0
322 1 64.22261724178121 7.730251350776521 5.617606849203992 0 0 0
380 1 66.80125738113256 8.320609227784544 5.21288847900865 0 0 0
335 1 71.99874672993732 6.502352848460958 5.437828554463582 0 0 1
291 1 76.71097150660036 7.495576077051948 5.204399745827969 0 0 1
1427 1 78.44710025314579 9.853098014980244 5.687105874830497 0 0 0
377 1 59.682699462336025 9.518415157371168 9.086478209321246 0 1 0
356 1 60.02996666379886 6.538587116954678 7.045303761775891 0 0 0
395 1 61.4441912780359 8.54927395211096 4.745268421395558 0 0 0
371 1 67.498446497891 12.182033922642615 3.7261026800426142 0 0 0
305 1 71.28328657914474 8.798895660348933 3.7010660488811995 0 0 1
407 1 70.20588839632222 10.686711014742016 5.400601361344391 0 0 0
278 1 74.41093671879644 10.247689328850068 3.700871073025348 0 1 1
1380 1 53.3257573381867 6.6543257325720635 8.55704203780659 0 1 0
101 1 53.905434632743344 1.9011307463231482 18.862260673756772 0 0 0
350 1 56.88942850830517 12.643254442145194 4.120627170896351 0 0 0
3 1 59.23972519304577 12.942382425742206 6.124376050672343 0 0 1
301 1 61.13150750304067 10.942987137875539 6.535520922295001 0 0 0
295 1 62.56959522910357 12.691124629971911 4.743780140738538 0 0 0
362 1 68.87894672395674 14.608731735893274 3.921084748816811 0 0 0
343 1 71.15742929689551 13.146496903518639 4.597927994047745 0 0 0
399 1 73.9639582866663 14.011204250866463 3.483237201904616 0 0 0
324 1 74.2316957031992 12.307646868326202 5.673936149957658 0 0 0
849 1 77.64936369551418 16.089098348355098 3.145076843496778 0 0 1
808 1 59.22860442676219 17.201489289569313 5.199566838260667 0 0 1
1373 1 65.92177249559009 0.002336086810379681 1.991387856458367 0 1 1
415 1 72.28014574733312 15.822595029517952 6.567649378630501 0 0 0
812 1 69.5228262431645 16.19356505785975 6.625252728229215 0 0 0
814 1 72.96914018033594 16.746926756385168 3.9536074550501983 0 0 0
958 1 57.503931531534285 0.2617046525398419 7.295700091329171 0 1 0
902 1 52.70709482666778 2.8964922693107154 7.650835768550922 0 0 0
9 1 53.12823360971531 2.21928573080157 2.37716270128064 0 1 0
348 1 61.55497423029185 1.7275336052071344 10.131098154241087 0 0 0
364 1 78.27064882762683 10.722671489881389 12.544468889507737 0 0 0
328 1 65.02159250981015 2.0287735726833644 7.784934442473269 0 0 0
1001 1 68.32581221290106 2.0762601613165064 8.105017728571783 0 0 0
381 1 69.54373311369903 2.7863756165706333 10.614431973902528 0 1 0
1640 1 75.7737614936047 6.054835679349229 16.344874159416303 0 0 0
2539 1 74.5985066218947 1.6151453483280331 8.327182316754817 0 0 0
378 1 57.9288087906494 6.853840487112862 10.100217437081506 0 0 0
1056 1 59.30527913827774 3.866877104883063 9.148013873223876 0 1 0
460 1 66.48144206933537 6.207994502301254 9.134413220908513 0 0 0
445 1 68.12382422850703 6.637605445463693 6.706402788974915 0 0 0
336 1 72.38385805327576 3.3299799842069198 7.962009180451521 0 0 1
352 1 73.62373658524508 4.341528937658955 6.0000132185700705 0 0 0
124 1 54.216170509428565 8.863852426390084 10.346655094657756 0 0 0
279 1 60.585619814750224 7.032378489998586 10.403650426811822 0 0 0
331 1 62.05521330042515 4.870612601508477 9.084656937983105 0 0 0
433 1 61.16312787554492 5.693003643624368 13.007801569768949 0 0 0
388 1 63.758630026867024 6.849768616521153 8.39210945672833 0 1 0
345 1 74.08780662082296 8.572571049408335 5.72957535846219 0 0 1
1482 1 77.10925131394916 5.529562023364465 9.332298930569936 0 0 0
88 1 52.837738945351546 12.56500536131974 12.590646429823629 0 0 0
410 1 54.8832169538221 10.455851862895 7.775516448427138 0 0 0
452 1 56.79578841240712 11.487694319779527 9.529700567354286 0 0 0
341 1 61.057612036678506 10.889437309096285 12.252456567791457 0 0 0
444 1 63.2628679442556 11.351362389417737 8.151733461446815 0 0 0
463 1 64.22513028057136 9.230314686307256 9.620490975117516 0 0 0
297 1 67.49546675464956 10.651526085330623 6.3048529446902455 0 0 0
334 1 71.9292373206022 10.424946718872636 7.552766429020395 0 0 0
354 1 74.56353082124346 9.325024509330564 8.656962659143554 0 0 0
1272 1 77.18055251447106 9.992518022736911 8.481869147319559 0 1 0
748 1 53.0152217367628 9.148694902371822 31.3908492290088 0 0 0
469 1 56.06277509787126 17.370131337967962 9.207590476801602 0 0 0
835 1 52.647229947005016 15.553768658055489 14.200092349680094 0 0 0
459 1 58.9436130478547 14.035640169211256 8.545675799232614 0 1 0
396 1 60.478873760565456 12.116178038900884 9.833431862174216 0 0 0
285 1 62.76547064079623 13.919347542250769 9.750100205385706 0 0 0
370 1 64.52278286189372 14.63380279622961 5.276782737369666 0 0 0
414 1 65.58194901620335 12.459545689701047 7.010336514383636 0 0 0
1973 1 72.6154599101565 13.337789082746466 7.440361266129203 0 1 0
353 1 75.317465749089 13.849669514785457 8.732575482664561 0 0 0
1483 1 76.715235091972 12.536130603277908 6.681093130835155 0 0 0
404 1 55.29299719313411 14.490080362600498 5.9223154674597405 0 0 0
365 1 59.71271138570208 16.595517138285857 8.017890050817574 0 0 0
1123 1 62.42317106356816 16.608414142293956 8.977600111160672 0 0 0
1290 1 72.08770495366832 17.814328088160227 27.792963240569517 0 0 -1
318 1 67.86414108004661 15.590174668222968 9.122860143991057 0 0 0
423 1 72.83660975492181 17.50507299474363 10.812024174518196 0 0 0
401 1 74.17045524129252 16.902107191502367 8.24156841997606 0 0 0
1050 1 54.85727824264062 1.3364945877201135 10.798532691040947 0 1 0
1136 1 58.00823664020446 2.4138185227324263 11.61928040697809 0 0 0
768 1 64.32068536499 16.613558653583315 28.688444974630933 0 0 0
379 1 60.51467781427635 2.583383127916876 12.929361652551092 0 1 0
964 1 65.22784972176512 1.7093388328491865 12.682088643398963 0 0 0