LAMMPS data file via write_data, version 29 Oct 2020, timestep = 25693

6765 atoms
1 atom types

0.0 157.504 xlo xhi
0.0 36.48765944037512 ylo yhi
0.18995362034080543 35.81004637965853 zlo zhi

Masses

1 18.015

Atoms # atomic

1278 1 24.04953403878722 16.15332392816243 35.08561906897661 0 0 0
6111 1 2.1091339798718676 1.1528902695880925 2.1045555246204706 1 0 0
1683 1 26.158225125550285 10.698745867656259 27.955677568374345 0 0 0
1073 1 9.883672090113764 5.383586639614914 1.8334646799822003 0 1 1
602 1 15.01430518406187 1.0210501831277292 1.2291059379155171 0 1 1
232 1 17.045982739758237 2.708609240444363 1.8566872274565585 0 0 0
791 1 21.218463806966287 2.4620475304804184 4.252767429486804 0 1 0
1207 1 24.981560426616426 1.714611745232232 2.203056273137304 0 0 0
1087 1 3.1044804397185954 7.3413552096509145 2.8062015070123687 0 1 0
128 1 2.364662754591307 3.9259647979285894 34.85460567741343 0 0 -1
613 1 3.741035248799989 4.850652766517502 1.7684659964717446 0 1 0
5899 1 6.423492510818514 1.9976076012317476 2.515089194597871 1 0 0
126 1 7.00728675075581 4.579549192581956 1.3613637447539566 0 0 0
252 1 14.174046861373364 4.922424873087033 0.8718207458533607 0 0 0
529 1 21.0595713368267 4.1707465760456905 0.30686898540168583 0 0 0
419 1 23.028643453068696 3.8896790476296306 2.4326635053589505 0 0 0
214 1 25.878319099720542 2.26933002031919 35.2199896783915 0 0 -1
5690 1 0.5935934342518583 3.0680741172632597 29.384766872949793 1 0 0
5722 1 5.260213351300282 9.412546469297967 3.4841398389277147 1 0 1
77 1 7.412637882564906 7.888324359857494 5.136841662636538 0 0 0
270 1 6.941851974998525 7.462270307239534 2.33198098566435 0 0 1
1033 1 13.736350055233029 7.992110584830354 1.8945919005679308 0 0 0
513 1 13.831877030596896 4.757896283600535 3.5468681323124462 0 0 1
437 1 16.725084007686903 9.514932293384833 0.6613406140242357 0 0 1
234 1 17.78513381453769 7.2569382240778895 35.18519435584831 0 0 0
1334 1 25.444810936006615 7.175515053451913 35.63196380807449 0 0 0
428 1 13.969794767210663 0.08502799199853892 3.544325239210868 0 0 0
297 1 11.075996709572394 9.207655134084863 2.4005694124470134 0 0 0
525 1 15.101206165807744 11.072989845113616 2.578435011725761 0 0 1
488 1 12.268110072462228 11.63367021013987 3.406558431986797 0 0 0
470 1 19.008642982265854 11.029625253884088 0.5296278472672777 0 0 1
447 1 22.594061171951104 9.898907473456676 3.314515979497937 0 0 0
1066 1 22.715247242628436 8.528348235957118 0.629145424278956 0 0 1
261 1 1.2728972718495153 15.230301084192378 2.218892149474694 0 0 0
5904 1 1.7576057442170003 12.644761749683111 35.01919078435897 1 0 -1
6581 1 2.9290779585292497 15.576637831902394 35.493391466290575 1 0 0
6112 1 5.291872601691235 11.503671533591271 1.5007359923304517 1 0 0
87 1 8.093707916481154 15.150069044105361 2.811348228349446 0 0 0
237 1 9.211357526843722 12.4122966081762 3.3026210778116205 0 0 1
293 1 10.557241566038801 14.839552485857514 1.1309921533248466 0 0 1
48 1 12.915033864246428 13.327994227132843 1.1543723575188918 0 0 1
6626 1 0.21996460621537436 7.38120901623999 25.08648423344179 1 0 0
306 1 19.343855775424487 13.33631394769919 2.9183703084319044 0 0 0
192 1 25.1752438483272 12.518517683769051 1.5258610858170862 0 0 0
295 1 24.02166036600353 12.189826979011 4.070491387663545 0 0 1
73 1 11.44999995373397 15.93637937145167 9.212358491410775 0 0 0
136 1 6.5792838713356945 15.752865067552449 0.49744736799336026 0 0 0
262 1 11.624790707067357 17.331369626859217 2.31645635883465 0 0 1
5868 1 1.989847973640779 6.616017095682314 29.22506315299293 1 0 0
550 1 17.770623840023426 17.233909228401973 1.7107914512481317 0 0 0
124 1 0.44181287135743047 12.02446815646991 16.777840710918607 0 0 0
5924 1 0.12194058920861345 8.850031126592096 8.438299699906267 1 0 0
701 1 4.122946853305947 2.720368441716447 3.378292492796133 0 1 0
94 1 4.901418691864465 1.405642640956433 6.018549858236698 0 0 0
315 1 8.51114277862305 2.367481658139419 4.391733068377845 0 0 0
479 1 16.540658727063768 0.3269535223881074 33.10074199019812 0 0 0
195 1 10.918140369304062 1.6657875406267912 6.510090312528607 0 0 1
12 1 22.111351566170644 15.678828083109437 29.423533550641764 0 0 -1
5726 1 1.466059743700819 4.0499380300710754 22.893208538531546 1 0 -1
354 1 16.281377070936696 2.457415920455003 4.552620015532978 0 0 0
387 1 22.943471944084163 2.655153878677159 6.774352944432466 0 0 0
934 1 17.022805443433978 0.8331132815451047 11.207840615009005 0 1 0
452 1 14.778906492097905 10.05798290855678 34.041908599777216 0 0 0
6345 1 1.3762255297497825 6.130248451970269 4.661285398583114 1 1 0
561 1 12.82501506897735 2.3568929920550756 4.712491007281963 0 0 0
680 1 17.336019837555074 6.574364605397763 3.898257977845431 0 1 1
677 1 22.565623150333778 7.465371324692274 7.273727679351149 0 1 0
358 1 10.115933387633424 0.927997634721944 17.403996414460376 0 0 0
6498 1 1.2259658941931795 8.791369183865294 5.9483759413496005 1 0 0
30 1 8.066984573180108 3.717979141014065 6.879598566988741 0 0 0
398 1 7.86610101180815 10.51401741472976 7.167265269097507 0 0 0
372 1 8.89784955316508 5.663364767150741 4.626457841893699 0 0 0
149 1 11.915034647347344 6.4978037126556565 4.0257767172463454 0 0 0
1136 1 14.940281288650795 8.0370085603776 4.401495191868335 0 1 0
89 1 16.624933812912463 10.229691110087794 4.821871315078014 0 0 0
356 1 20.161782755490805 7.466521688906249 3.6530122263767297 0 0 0
489 1 19.469111267403036 10.079296675574064 3.472752767439369 0 0 0
818 1 19.9876084881089 7.767851344115448 6.5638645239127404 0 1 0
1662 1 24.832332320654434 5.634898228951505 3.723024526944303 0 0 0
1663 1 24.001762571028813 7.877714194763893 5.053374778230664 0 0 0
384 1 3.7136349816395238 10.160593234417837 5.782688944078208 0 0 0
6000 1 5.135637175915177 11.332832327385306 8.282240815782608 1 0 0
24 1 3.8159900122945456 12.694688327996 3.805192910120476 0 0 0
51 1 6.972138411977929 11.22547250366459 4.672621345006083 0 0 1
374 1 10.441939861845581 10.9708831776261 5.538631962284353 0 0 0
75 1 19.220861200859 10.523922527049514 6.676006866571537 0 0 0
1783 1 26.085426243963646 11.744709181186085 5.817726988772199 0 0 0
5590 1 2.4290728799767267 1.4552634864600296 30.7652956480328 1 0 0
251 1 6.035411852255431 13.972515309874689 5.016095163667181 0 0 1
902 1 14.480824143805894 13.96233612469688 7.613632573475864 0 0 0
514 1 17.447285112936964 13.92994725406795 4.825912013919221 0 0 0
5778 1 16.529854580804336 13.13388356025843 1.8763981788976953 1 0 0
169 1 21.107513231757856 12.364753672456144 7.078319604140196 0 0 1
343 1 24.96396966475105 15.920783749938279 6.002333420693398 0 0 0
1482 1 21.738306486344086 13.334712686494237 4.444401573670436 0 0 1
534 1 9.464088101310244 16.84904076801204 4.064976394058764 0 0 0
6052 1 9.921606058306965 15.096280289549624 6.597717506750834 1 0 0
1189 1 23.40353635226364 16.129279461288426 31.785572806053924 0 0 0
537 1 14.258889893099564 16.33596158523042 6.116396770659955 0 0 0
35 1 14.836353245935268 15.518289218772424 1.3593575108999343 0 0 0
74 1 15.746091643562519 15.781577089964573 3.869302928940489 0 0 0
1410 1 22.32371972903551 16.04742873749863 4.480346332495124 0 0 0
6353 1 4.865256912707373 17.433394699592263 6.825743568448854 1 0 0
1121 1 14.60187381666408 0.7596545872052007 27.81970013517972 0 1 -1
253 1 6.635069394649297 1.81554097157586 8.373563369421749 0 0 0
511 1 14.565994962284403 2.4746993723964357 7.312086037399515 0 0 0
947 1 24.902337674114083 17.639250081799737 3.197275865578238 0 0 1
201 1 15.434113093543381 0.9267232060517724 25.045368188197187 0 0 0
832 1 23.86464553547458 18.02025662262193 8.426360186443263 0 0 0
5702 1 2.170424949970795 2.4292275615561487 7.11491426312583 1 0 0
1059 1 10.294995465718602 4.068354221919724 8.387086371644964 0 1 1
1217 1 26.15589799094665 13.459290108775209 26.969318119568896 0 0 0
309 1 10.18937819396452 6.570939056180746 7.412538776526923 0 0 0
79 1 15.358756781944445 5.142735592572693 6.110057019421452 0 0 0
519 1 18.83194740668082 3.85149418092709 8.989235355127315 0 0 0
224 1 18.60768451210062 3.834067209607807 4.6080021788717405 0 0 0
37 1 24.72065990164666 3.3187626358590046 10.375628888456868 0 0 0
118 1 3.0149240740471535 5.118391539491816 6.65187865243958 0 0 0
275 1 5.518086545018237 6.70722536057797 7.067899544439019 0 0 0
399 1 6.611017996747784 6.516698084722828 9.81073047266288 0 0 1
415 1 8.315769927867478 8.256344299042977 8.387192190281041 0 0 0
367 1 12.856404677485648 7.646576947556195 6.489050375516691 0 0 1
350 1 14.16411019903853 6.06310216345455 8.35039701683586 0 0 0
1185 1 18.4184446074175 5.679706999750239 7.167101099113258 0 0 0
450 1 16.672575053391093 7.246028466476249 8.977826854308601 0 0 0
285 1 23.812262753815737 7.512371390297104 11.117259423409196 0 0 0
636 1 4.0574625048475585 8.187108175390433 9.464863892899166 0 0 0
186 1 8.855975660402695 13.01666275735723 8.449716459942227 0 0 0
199 1 12.913090051351737 10.14576353643198 7.489366675154207 0 0 1
39 1 13.183714445426704 10.480341328368246 10.295199541378063 0 0 0
1460 1 15.551736648938851 11.490273342070124 7.09061332781369 0 0 1
93 1 16.336256594572813 10.075560125788302 9.249957664319927 0 0 0
17 1 19.08304360270588 10.409971013692228 9.452807786223989 0 0 0
2067 1 23.140737461731707 11.68745328932179 9.001185549180736 0 0 0
480 1 22.171169514488735 9.047392972683113 9.742868232267961 0 0 0
299 1 1.4891136349438259 12.350194087897066 5.429122350737989 0 0 0
918 1 6.6442371336712664 14.520438955765917 7.776093932617455 0 0 0
137 1 3.60631061766353 13.735748696989136 8.198050176607405 0 0 0
134 1 7.627797027434592 17.2480761086458 7.008595376667784 0 0 0
364 1 11.731504188642328 12.998260883750136 7.238443196408974 0 0 0
200 1 12.879293065766074 13.453795869773177 10.377581034913845 0 0 0
9 1 18.098364107807008 16.023546488142813 6.565475704388741 0 0 0
1168 1 22.301173652088586 14.111952411968188 10.059345297006232 0 0 0
254 1 25.738214566304602 12.69021371679705 8.365877234050604 0 0 0
381 1 3.1243417803570694 15.486431233762751 4.1611264689201555 0 0 0
504 1 1.5104180443061137 9.66570276166159 17.934743370589654 0 0 0
1079 1 1.555531083597808 15.453280441447914 6.437288753183793 0 0 0
2250 1 23.050922956955166 18.211116853264414 27.86072766882003 0 0 0
1147 1 16.397053335851417 17.387686766794413 8.305348331039994 0 0 0
795 1 20.924781620039273 1.9671563794253162 31.423959907275997 0 1 0
1453 1 20.235209026853827 14.715840094767948 7.85218900697327 0 0 0
509 1 21.13391818949969 17.39883530446116 9.018449030712375 0 0 0
835 1 19.227777924369832 0.4779347117087362 9.141998552212899 0 1 0
600 1 25.357145571032056 6.512717322282481 8.545127992819475 0 1 0
6524 1 0.4235428413820456 10.279785458481756 11.957808262442294 1 0 0
221 1 5.055395307948422 1.619496548314934 10.730898290091742 0 0 0
517 1 6.574186433236468 3.70716924549258 12.199085503928776 0 0 0
317 1 25.700344211334237 18.012669297473426 31.021271311921307 0 0 0
945 1 10.15921171344631 1.438213171249454 11.480698471845825 0 1 0
760 1 16.257702643403878 3.045597671787458 9.934021719367443 0 1 0
672 1 19.61135377018425 4.825398441928022 11.696855990617538 0 1 0
1759 1 22.825642469850383 4.4775071898173895 13.630484701983784 0 1 0
453 1 23.145565426009068 1.1120707229349633 10.940644826299016 0 0 0
220 1 2.4371037715664063 2.2139176972956203 9.958556503019015 0 0 0
886 1 8.68960382291317 3.476976181624435 10.293279507615033 0 1 0
383 1 12.26523613256032 1.7959845081442936 9.424982777847408 0 0 0
1077 1 13.641636598776618 4.029964302646782 10.325525546654914 0 1 0
188 1 17.06670375768384 5.733215533500994 11.02909516424846 0 0 0
211 1 22.53662967435783 5.025067911538101 10.96171004692059 0 0 0
6176 1 0.07482668043312171 10.35902166779352 25.00575964153996 1 0 0
554 1 20.456653759474186 6.733823855976942 0.7745358975587381 0 0 1
260 1 3.437463344922446 7.260934722613438 12.52053918945743 0 0 0
5623 1 2.1778777248871615 5.18322788951719 11.141824062868132 1 0 0
429 1 9.091144102808768 6.107806252269787 11.577449915734158 0 0 0
146 1 11.657527527992332 6.567749383725846 10.545557741396344 0 0 0
273 1 20.72391327121559 9.605529927877082 12.021966288229143 0 0 0
811 1 2.343344654583202 18.16055627293029 32.348345880059995 0 0 0
1362 1 23.4348890790774 9.212791254967849 13.459655285172934 0 0 0
508 1 5.526661951575468 11.093420318420497 11.093734783075346 0 0 0
62 1 9.436268670168147 9.244745953964182 10.663833242584886 0 0 0
408 1 6.790179783348168 8.878043910845696 11.670079447743818 0 0 0
522 1 12.459027900186346 8.679512449686648 12.163174471571967 0 0 0
473 1 16.047000314724553 11.131976645312125 11.64130037812705 0 0 0
336 1 18.070492257651157 10.835339979329726 14.967772121519333 0 0 0
1174 1 22.810306950514814 11.622793635080093 14.5836227975651 0 0 0
25 1 0.9872037429434595 12.537984624927097 8.303399489027594 0 0 0
461 1 7.704693782172837 12.629089985980864 12.257571874222123 0 0 0
241 1 4.042634293201829 15.063484984663791 10.564141327546317 0 0 0
26 1 10.115635098610566 12.141337427504977 10.71743611939931 0 0 0
115 1 6.5533160547626546 15.253921658534013 11.733438213255305 0 0 0
466 1 15.448735695374644 15.087462686926258 10.156749382425955 0 0 0
1113 1 19.381151448431062 12.968407824329708 10.333094916368175 0 0 0
829 1 17.08634044567298 13.808325493598367 11.837930257358199 0 0 0
193 1 25.111951777439234 15.318033938761852 9.166561420060376 0 0 0
6365 1 0.09285677775695944 15.935800090498473 28.308415838546637 1 0 0
867 1 5.6975604066323235 16.723014110793553 13.687070479225603 0 0 0
965 1 25.88752873795714 17.286853520370872 24.412267607801365 0 0 0
1021 1 11.03369478281037 14.5849539436423 12.491896444245299 0 0 0
290 1 14.29156484718563 16.938817279328077 12.318807176675158 0 0 0
669 1 23.049193150090396 14.194002395804237 12.836181882966065 0 0 0
888 1 25.24839981246913 15.90330149662478 13.341041226464917 0 0 0
798 1 16.848443700765028 0.30282642039525465 30.226429220664723 0 1 0
5742 1 2.0994887053447484 1.186528906191223 13.388594493254233 1 0 0
5711 1 5.381949619319739 2.1762039142913987 15.877447104943325 1 0 0
378 1 21.472965549106867 16.533833817124584 13.757785089536371 0 0 0
841 1 11.631407768307215 2.03658788183723 14.744105596615755 0 1 0
582 1 15.264595201262546 0.951694617241851 13.415342104416856 0 1 0
1019 1 1.230119905514265 6.176170400276295 8.725660680356397 0 0 0
624 1 18.723129754775027 2.6185891402353034 13.042821719930313 0 1 0
61 1 21.166812081475488 4.891821536780103 15.96994307401646 0 0 0
31 1 23.67697194808755 1.525469277059047 17.61047982593645 0 0 0
5718 1 10.27345687686881 14.580417134323964 34.09242276309956 1 0 0
523 1 1.7382607729008746 3.810336108317744 13.871069150003756 0 0 0
458 1 4.527409872159735 4.688773776520399 15.444546833431207 0 0 0
953 1 9.338803641338513 3.5113001177357805 13.725487170401045 0 1 0
88 1 8.030938513656718 2.75082761870472 16.14468725346366 0 0 0
143 1 13.740999663661764 3.281003309937794 13.120248195448793 0 0 0
207 1 17.39460987981597 3.4207229840618694 15.555479405260355 0 0 0
449 1 19.713108114684236 2.728714270586576 16.723887680346365 0 0 0
266 1 18.887636922628193 7.181440465898283 15.609394613304772 0 0 0
1755 1 23.4024052420397 4.1001975616579545 17.550310270258226 0 1 0
6130 1 0.4557961592552634 8.463766212925998 2.112756855818042 1 0 0
209 1 1.8336878571734323 6.595963477124573 14.673841580854992 0 0 0
82 1 25.417433655572747 3.7300954706423397 7.615451832756379 0 0 0
255 1 5.894259197450156 6.138905038389483 13.223496017415798 0 0 0
416 1 7.287077447462216 7.452184271125092 15.278793396260802 0 0 0
223 1 12.041857509733116 5.332127739060048 14.53924050003605 0 0 0
532 1 9.834351827437914 6.847186830190098 14.172982454992598 0 0 1
81 1 13.966015017756389 7.768379707975007 14.160607828009114 0 0 0
78 1 15.536470486605518 5.4501356716844285 13.597612193618916 0 0 0
413 1 19.04788215505054 7.423579199409214 12.78869145335948 0 0 0
135 1 23.678546229043842 8.115599967165108 16.182433766252927 0 0 0
446 1 25.16179059073741 9.275856741418634 17.93065389135996 0 0 0
801 1 3.035643172585239 7.8446385120391 16.768012955586656 0 1 0
101 1 3.559081107181795 10.663329921083742 12.978993662572826 0 0 0
436 1 7.766218695517376 10.099381026769484 13.834587979173667 0 0 0
606 1 10.499155778713785 9.28135229793675 14.220860424689612 0 0 0
314 1 16.49620105258567 8.77151364541174 13.54332972808245 0 0 0
222 1 19.053796787334818 9.4508844112785 17.024390882618977 0 0 0
1138 1 2.200801695669642 14.841100509841455 12.818230096779647 0 0 0
732 1 9.540103955180257 13.501764203208907 14.62289578330021 0 0 0
345 1 6.702716993595064 12.819272125812496 15.45158218434397 0 0 0
538 1 10.339679916762236 16.08279023472035 15.618531426771971 0 0 0
864 1 15.4333902862547 14.435926057566872 15.856046124610842 0 0 0
155 1 20.064132808058798 12.257304310205749 13.160040816950307 0 0 0
179 1 21.197836300028243 11.318958113241182 17.158533388301578 0 0 0
1072 1 19.542041953216067 13.48859624717138 17.212963403184855 0 0 0
1886 1 25.064890207790867 13.46014820879517 15.245625008563735 0 0 0
751 1 0.45079396542936334 17.02070904648348 12.25824300817519 0 0 0
1089 1 5.714538621592847 15.405251883133598 16.045873160724433 0 0 0
1006 1 8.92593027254466 18.118156431427376 13.730466391120359 0 0 0
292 1 13.215146359784155 15.589322171431837 14.4424168765365 0 0 0
282 1 22.278033908393752 1.0709847398292256 22.765121409494363 0 0 0
47 1 18.74133301039684 16.750511880692084 14.459432933263322 0 0 0
423 1 18.011933848473184 14.258088499055187 14.681743575922397 0 0 0
158 1 26.032057530870613 4.797441946106255 12.811828098493427 0 0 0
5844 1 5.410662338888306 1.7376578879886697 18.653304649908165 1 0 0
1118 1 17.27981659906222 16.879635789171786 30.296861895381053 0 0 0
396 1 13.04369907892356 12.100269987985623 33.994557684372296 0 0 0
54 1 12.69750870105559 2.3587570385453267 17.49832523717264 0 0 0
5822 1 5.249251551707152 13.775763395036476 35.32266908656578 1 0 0
268 1 15.0213487313393 1.4960123094128968 16.252238104674774 0 0 0
1264 1 26.223831000679947 9.29602557313314 13.314236569708847 0 0 0
742 1 1.7630315272198318 15.582884698899878 33.23224772478572 0 0 0
845 1 6.213023201529433 0.8102624108707736 21.61196334052867 0 1 0
258 1 1.6623665918531307 3.8053068440645648 16.89241738967944 0 0 0
490 1 5.181196996847479 6.283310062868549 19.243323997462944 0 0 0
5587 1 7.394522860696344 5.33378556805692 17.574153191810556 1 0 0
83 1 12.50141519526589 5.154514590519306 17.44209681076623 0 0 1
117 1 16.24178957748605 5.5268469980181285 19.795657970723852 0 0 0
98 1 20.455227270306466 3.4420544845971683 19.535971587747586 0 0 0
147 1 20.681864401944903 6.109204606928459 20.35497715235251 0 0 0
5783 1 8.37294099718196 16.46133266002224 34.04915704359091 1 0 -1
212 1 5.629238337034176 8.997728224532857 17.035316337454677 0 0 0
16 1 2.5039642881632185 5.911399641111258 18.58874928484643 0 0 0
738 1 9.769930001324393 8.843868967992194 18.50155422561922 0 0 0
300 1 9.935398429279564 5.861379741094375 18.268489786250804 0 0 0
784 1 14.013085135662275 9.505163485864127 20.39252738417361 0 0 0
52 1 14.2638955849947 7.239367106853965 16.85146066709499 0 0 0
311 1 16.794516821248266 5.958982181277784 16.82655855589289 0 0 0
391 1 21.384488162361738 7.215072636480233 17.615244781686094 0 0 0
1124 1 7.353085530575205 17.106694059277192 9.871277977282531 0 0 0
898 1 9.82900855584548 0.26370895849275156 32.999904579821134 0 1 0
475 1 7.72109267514087 12.4706881259547 18.03260852104938 0 0 0
745 1 10.918992142001304 10.287328463633413 16.725088282446734 0 0 0
58 1 13.674330021329519 10.201663662073985 17.656787502312522 0 0 0
1135 1 12.876169360838512 12.921109346898476 18.836493875675313 0 0 0
43 1 15.744172715595642 11.721531064475736 16.581043192659944 0 0 0
427 1 17.492170302293435 12.193803090667275 18.693205429051723 0 0 0
159 1 18.41148150645351 9.866521850330157 20.31386902066282 0 0 0
168 1 23.00847536028467 10.75408066501794 19.11377863671785 0 0 0
139 1 3.0363126194460555 12.659906313587236 16.692448556580505 0 0 0
246 1 4.844427315544221 10.823587052822973 15.322551329320905 0 0 0
120 1 10.367725182667746 13.442706188183507 17.750128539565633 0 0 0
1061 1 9.299258714573773 16.22469533895506 18.306233273680267 0 0 0
748 1 6.317999989017429 18.046644916341233 17.477610860757498 0 0 0
430 1 15.604868564702064 14.056949409843076 19.86097970396595 0 0 0
2131 1 24.278238583388298 13.328794396856594 19.827856164838206 0 0 0
2289 1 24.895032322211694 14.890432473168588 17.64297980425106 0 0 0
787 1 0.5725622211368406 16.756035537260072 16.829363118119744 0 0 0
250 1 17.54223546182903 0.2444059284504141 23.630493401352275 0 0 0
307 1 2.8975311742569234 15.24858455629588 15.51986888655991 0 0 0
575 1 6.511632886316572 15.142295037120796 18.962715142200356 0 0 0
608 1 10.276539779193438 16.07420251455521 20.914190564551696 0 0 0
996 1 15.87640696091935 16.20654456841231 17.939500106101455 0 0 0
411 1 22.48106885652322 13.910645431359635 33.715908663541086 0 0 -1
1029 1 18.409040577792837 17.361351925850926 17.349585338854506 0 0 0
1117 1 20.660433097361 15.660907808943481 18.349941366047947 0 0 0
2034 1 22.97099185649413 16.804261482741595 17.179541166445933 0 0 0
233 1 1.0489271624944203 1.6306401257065832 21.24985713790861 0 0 0
516 1 21.569082897093935 6.895829728296953 33.41584365281618 0 0 0
1043 1 10.386599055142726 1.4983703568839342 20.2086691261828 0 1 0
521 1 13.20429622827609 1.8115362404937803 20.25909685835439 0 0 0
388 1 15.762439069098091 1.0962246951748107 19.043936245703783 0 0 0
401 1 24.163599774469688 0.7976705020247546 24.995720415285767 0 0 0
1 1 2.4430481021489756 1.9742003296955621 18.839181496555504 0 0 0
6501 1 3.9331286529028913 4.2222053204509145 21.484291660442867 1 1 0
349 1 7.557900895177221 5.276359040264098 21.366364116751857 0 0 0
492 1 7.874415549310392 3.0984621831416943 19.66481976559454 0 0 0
6045 1 10.10780753085294 6.461824349245884 21.22975955258354 1 0 0
720 1 12.042095745148279 4.598482095462171 20.45306977329834 0 1 0
510 1 13.88350461569281 6.833521464353846 20.775561225899313 0 0 0
455 1 17.56026067636597 2.9962901974131326 20.009185757404804 0 0 0
1140 1 23.140162053784767 2.7453823505016945 20.50708809384409 0 1 0
599 1 24.503325749163448 4.532114662851207 22.35021369499285 0 1 0
778 1 1.6981909190659723 7.164908628380259 20.876011811474992 0 0 0
229 1 6.154019049670336 8.039846111908252 21.095314433254714 0 0 0
5958 1 3.841843571235626 6.954227779660383 22.37526335990105 1 0 0
97 1 8.16442131526904 9.615204332439628 22.863566710815153 0 0 0
1015 1 14.525575229728 7.1894459084985805 23.519118245756527 0 0 0
332 1 18.21044084676432 7.196948131869989 21.142084498476006 0 0 0
1016 1 17.15496513971351 5.985712734747669 23.26228288852931 0 0 0
1474 1 22.084001749864708 7.6671610597922575 22.199418533479665 0 0 0
6632 1 2.026977517531512 9.886012362144607 20.69662264821037 1 0 0
373 1 4.311597705404962 11.584588276972646 21.03265852489633 0 0 0
86 1 7.322419079886901 9.889100561961264 19.247901817782296 0 0 0
622 1 10.996764639508687 9.564075320120665 20.760934849683558 0 0 0
303 1 14.288876674506156 11.930702981942659 22.328704627129543 0 0 0
1001 1 17.21282728071354 11.551953146451913 22.561840780114792 0 1 0
69 1 21.188339179878483 10.157617868395713 21.479291750195657 0 0 0
2212 1 21.433159846135354 12.256966643329665 23.49162321001362 0 0 0
1618 1 24.84836637078186 7.123198485972512 21.99877483227468 0 0 0
5939 1 2.1628554115717553 15.293785666850653 20.57754825769631 1 0 0
501 1 7.123970727589635 11.82447226688199 21.477355690526878 0 0 0
55 1 9.938945663753278 12.127038352435756 20.538200819035946 0 0 0
566 1 12.303003897877344 13.885624871837006 21.291254889457665 0 0 0
289 1 21.36695482584585 14.628914564769643 21.579048784339967 0 0 0
197 1 18.443895492419323 16.984876736762747 33.01455286464595 0 0 0
6735 1 3.0086684910376396 17.98792836669129 20.5513731601676 1 0 0
1078 1 4.006321012626052 13.737428143057196 19.266514372168242 0 0 0
274 1 25.44302155848071 0.5053994906366043 20.15464254235477 0 0 0
844 1 13.787477989394306 16.518197663394275 20.95143720846232 0 0 0
217 1 0.895069488441465 12.343895918632235 2.156963408977277 0 0 0
981 1 16.491584250705127 14.831014500186495 22.306684892152287 0 0 0
558 1 17.436088670013678 17.79396475315097 22.127745236365833 0 0 0
719 1 21.43148426806629 16.776388970967567 23.67993683175784 0 0 0
2277 1 24.117819087742486 15.730837687144847 21.48829553920203 0 0 0
68 1 5.463620169514322 2.555273351353397 23.500407446077542 0 0 0
177 1 4.9187912702991925 2.7039284168337376 29.705731893434667 0 0 0
646 1 15.805808698850091 15.783069110093225 34.17599946301988 0 0 -1
948 1 25.42646787357808 0.8292743837872615 31.35012786004163 0 1 0
339 1 20.403091533189713 0.9838197850263729 27.210807281710917 0 0 0
19 1 20.27288463181543 1.9603023816162146 24.090870130829654 0 0 0
70 1 12.93422612651063 0.7669523081329339 23.38780463081553 0 0 0
1058 1 4.085298171757213 10.596463230450912 34.73674910506956 0 0 0
406 1 4.185924264103093 0.08449084398992812 14.672941577348762 0 0 0
324 1 7.5271284062591475 4.372596544566022 24.061051602222474 0 0 0
375 1 11.904402151846993 3.480112219507908 23.09165906156447 0 0 0
683 1 9.565081977927294 2.6900652464666583 24.02685234587044 0 1 0
239 1 13.473932910304045 4.888136057578766 24.885155965546797 0 0 0
393 1 15.992652751416196 3.579458280338016 24.989222210244805 0 0 0
104 1 17.900907587167186 3.0345062829462695 22.785775165609472 0 0 0
164 1 21.20202659684647 4.5271764812007484 25.13644917313869 0 0 0
454 1 24.003834489814853 3.712978981232726 24.740487012701326 0 0 0
122 1 23.78364710763751 11.452841502893671 34.81918318865432 0 0 0
788 1 4.082265054655438 17.93771122997276 9.586947788870072 0 0 0
493 1 4.554607823288297 7.518558903872975 25.062465263997748 0 0 0
276 1 8.106218212187345 8.38153644422945 25.501394258612958 0 0 0
445 1 11.001575425496076 8.496974624161503 23.405839711828513 0 0 0
2 1 10.843978833924481 7.931433916300711 26.736389806611356 0 0 0
565 1 18.391580407499585 7.3802086993232 25.143427127364706 0 0 0
312 1 21.199012650270802 7.3165331903109525 24.78574661248783 0 0 0
1195 1 23.44470309939512 7.445582421930932 26.799897703934732 0 0 0
2179 1 24.492656456317714 9.731481961316078 25.71662395941078 0 1 0
127 1 2.782197125199039 11.395446056813798 25.571690121521065 0 0 0
693 1 3.6534310218849897 12.809543410191718 23.507953243689858 0 0 0
141 1 12.641047087915604 10.545679837575301 24.133081927588403 0 0 0
500 1 14.665775079949041 9.292158883535185 25.333278324307418 0 0 0
129 1 18.667615890752714 9.984023928624296 24.69698250975724 0 0 -1
843 1 25.87723192621117 14.163780199231947 31.797197053277262 0 1 0
13 1 0.7123894975119731 15.988769586794701 25.43215080037681 0 0 0
6690 1 2.4164470943209535 15.258780840108107 23.487618965384442 1 0 0
334 1 6.055211804850037 13.353898045919948 25.25967324471041 0 0 0
763 1 7.570638966155117 14.504437669738559 23.035988205182736 0 0 0
91 1 10.13320777269871 15.010466157362078 23.691435265608288 0 0 -1
560 1 12.174247734304664 13.529907323858346 24.67341457984139 0 0 0
444 1 16.808828868869835 10.63180558683201 26.491466879846698 0 0 0
269 1 18.968853266211017 13.73837578141512 23.78179556983861 0 0 0
806 1 21.41587397495367 10.211775219581154 25.459958047786657 0 0 0
1131 1 4.404288435441794 17.10139876669754 24.110154920965616 0 0 0
6499 1 7.059041057329445 16.549166624542238 24.79703794075457 1 0 0
208 1 7.343722642872365 16.809686217360955 21.164695030956146 0 0 0
172 1 10.745826201028628 17.797936324867926 24.533570379840697 0 0 0
995 1 13.783772313737343 18.014472163180628 23.387835768926653 0 0 0
692 1 14.826369479608129 14.553623916167743 24.53510185095413 0 0 0
1132 1 18.530727510731523 17.415125414979446 24.49015797667602 0 0 0
1403 1 25.130115412873895 14.623878315115924 23.884347184212203 0 0 0
15 1 22.24610788676096 0.5460138150856141 8.385891843360282 0 0 0
686 1 17.270340002285646 12.962547553061727 34.80053940451492 0 0 -1
462 1 13.13059407612921 7.09807358577229 34.8573434570407 0 0 -1
939 1 19.803226496231392 15.594196485207052 1.0442808228624574 0 0 1
1690 1 26.211908836723467 4.738846904682257 17.808775578551803 0 0 0
313 1 5.467966263438093 0.7391938610217469 25.730740127677475 0 0 0
1026 1 10.714753039877934 1.6853394317371608 26.50271905300454 0 1 0
33 1 8.050266428434044 11.35676826411604 0.9216021403286773 0 0 0
84 1 12.697574095754712 2.528611480531907 28.265472350709146 0 0 0
281 1 25.667657065232913 6.94625294374046 19.27917030589149 0 0 0
850 1 21.492370101088863 1.8216948474667338 13.05641475287396 0 1 0
180 1 16.426730933107617 2.950301604082287 30.11109121683494 0 0 0
1667 1 26.106167155870164 15.105322202220561 0.7589706787354961 0 0 0
6081 1 6.160361024093233 8.559448130004816 35.08784978837235 1 0 -1
676 1 8.466162339932987 1.871641227570758 27.880122713626683 0 1 0
5664 1 3.6514608996683835 1.8562180913848558 27.38625373931603 1 0 0
5857 1 6.892827071873717 4.8706960150663505 28.148582706750798 1 0 0
206 1 9.553386918232295 4.618975679539765 28.779761966793014 0 0 0
263 1 11.162173488593954 5.273348979344225 26.580574333610613 0 0 0
80 1 13.396185377972525 5.368218198882314 28.61232515292085 0 0 0
245 1 16.00657473244604 4.425601531698953 27.84522633145954 0 0 0
494 1 21.06185128829889 3.832167917154813 27.910598805248593 0 0 -1
72 1 23.39305683336435 4.598058150681922 29.393656006064408 0 0 -1
283 1 25.176584418210773 4.76160516309876 26.884636938250694 0 0 0
5909 1 2.0788202985219515 10.330617524263165 9.716764669031324 1 0 0
6655 1 2.3477064230838054 6.432332275471364 26.47171882123624 1 0 0
5818 1 2.194714207800829 3.7294709250388864 25.545418574488902 1 0 0
438 1 3.557360545951 9.21011660680606 28.854178310804706 0 0 0
371 1 6.809433154625082 6.114185454585327 25.80415493059128 0 0 0
625 1 10.051704860341246 8.859113839133018 29.086134591020688 0 0 0
187 1 13.775187346639434 8.153771299152655 27.60351753322717 0 0 0
60 1 18.801379570029138 5.783680565225176 27.641696453720794 0 0 -1
41 1 19.680239011260145 7.168195864514007 29.815824139491184 0 0 0