
# Create simulation box
#
region 	     all block 0 ${XDIM} 0 ${YDIM} 0 ${ZDIM} units box
region 	     all block 0 157.504 0 ${YDIM} 0 ${ZDIM} units box
region 	     all block 0 157.504 0 36.48765944037512 0 ${ZDIM} units box
region 	     all block 0 157.504 0 36.48765944037512 0 36.0 units box
create_box          1 all
Created orthogonal box = (0.0000000 0.0000000 0.0000000) to (157.50400 36.487659 36.000000)
  6 by 2 by 1 MPI processor grid

# fill box with randomly distributed atoms of number density 0.0327 N/A**3
#
create_atoms        1 random 6765 63782 all
Created 6765 atoms
  create_atoms CPU = 0.001 seconds
mass                1 18.015

# Define potential
#
pair_style          sw
pair_coeff          * * ML.sw mW
Reading sw potential file ML.sw with DATE: 2019-02-27

# Run minimization
#
minimize            1.0e-8 1.0e-8 10000 1000
WARNING: Using 'neigh_modify every 1 delay 0 check yes' setting during minimization (../min.cpp:187)
Neighbor list info ...
  update every 1 steps, delay 0 steps, check yes
  max neighbors/atom: 2000, page size: 100000
  master list distance cutoff = 6.0032907
  ghost atom cutoff = 6.0032907
  binsize = 3.0016454, bins = 53 13 12
  1 neighbor lists, perpetual/occasional/extra = 1 0 0
  (1) pair sw, perpetual
      attributes: full, newton on
      pair build: full/bin/atomonly
      stencil: full/bin/3d
      bin: standard
Per MPI rank memory allocation (min/avg/max) = 4.228 | 4.230 | 4.231 Mbytes
Step Temp E_pair E_mol TotEng Press 
       0            0     29575710            0     29575710     13306676 
     693            0   -73059.646            0   -73059.646   -648.00993 
Loop time of 1.39792 on 12 procs for 693 steps with 6765 atoms

97.7% CPU use with 12 MPI tasks x no OpenMP threads

Minimization stats:
  Stopping criterion = max force evaluations
  Energy initial, next-to-last, final = 
      29575709.7393803  -73059.2007149199    -73059.64608891
  Force two-norm initial, final = 8.3004069e+08 5.5974828
  Force max component initial, final = 3.5083162e+08 1.4076847
  Final line search alpha, max atom move = 0.081036723 0.11407416
  Iterations, force evaluations = 693 1000

MPI task timing breakdown:
Section |  min time  |  avg time  |  max time  |%varavg| %total
---------------------------------------------------------------
Pair    | 0.92862    | 1.0972     | 1.2377     |   7.7 | 78.49
Neigh   | 0.029532   | 0.031619   | 0.033058   |   0.5 |  2.26
Comm    | 0.053856   | 0.17457    | 0.32548    |  18.8 | 12.49
Output  | 0          | 0          | 0          |   0.0 |  0.00
Modify  | 0          | 0          | 0          |   0.0 |  0.00
Other   |            | 0.09456    |            |       |  6.76

Nlocal:        563.750 ave         590 max         539 min
Histogram: 1 0 0 5 0 3 1 1 0 1
Nghost:        1256.67 ave        1287 max        1228 min
Histogram: 1 2 2 1 0 2 0 0 2 2
Neighs:        0.00000 ave           0 max           0 min
Histogram: 12 0 0 0 0 0 0 0 0 0
FullNghs:      15853.7 ave       16923 max       14773 min
Histogram: 1 0 2 2 1 3 1 0 1 1

Total # of neighbors = 190244
Ave neighs/atom = 28.121803
Neighbor list builds = 32
Dangerous builds = 0

# Add velocity/set timestep
#
velocity            all create ${TEMP} 120598 rot yes dist gaussian
velocity            all create 240 120598 rot yes dist gaussian
timestep            5.0

# Define output
#
compute	            1 all msd
thermo	            100
thermo_style        custom step temp press vol etotal ke pe c_1[4] density

# Neighbor lists
#
neigh_modify        delay 0 every 1 check yes

# Set fixes
#
fix                 1 all momentum 10 linear 1 1 1 rescale
fix                 2 all nve
fix                 3 all temp/csvr ${TEMP} ${TEMP} 500.0 928347
fix                 3 all temp/csvr 240 ${TEMP} 500.0 928347
fix                 3 all temp/csvr 240 240 500.0 928347
fix                 4 all press/berendsen z ${PRES} ${PRES} 1000.0 modulus 20000
fix                 4 all press/berendsen z 1 ${PRES} 1000.0 modulus 20000
fix                 4 all press/berendsen z 1 1 1000.0 modulus 20000

# Run equilibration
#
dump                1 all custom 1000 whole.${NAME}.dump id type x y z vx vy vz
dump                1 all custom 1000 whole.Ibeam_MLmW_240K.dump id type x y z vx vy vz
run                 25000
Per MPI rank memory allocation (min/avg/max) = 3.478 | 3.480 | 3.482 Mbytes
Step Temp Press Volume TotEng KinEng PotEng c_1[4] Density 
     693          240    421.14809    206890.28   -68220.718    4838.9278   -73059.646 9.1217622e-34   0.97816255 
     700    98.852119    1303.0759    206998.82   -68089.804    1993.0761    -70082.88  0.028272047   0.97764967 
     800     171.3165    133.49499    206984.28   -66077.863    3454.1173    -69531.98   0.40926893   0.97771835 
     900    198.58351    21.438362    206662.36   -65010.914    4003.8802   -69014.794   0.84273806   0.97924135 
    1000    212.38831   -10.215578     206452.7    -64326.14    4282.2154   -68608.356    1.3215572   0.98023581 
    1100    227.03242   -159.97925    206113.28   -63922.289    4577.4728   -68499.761    1.8636278   0.98185001 
    1200    229.51726   -12.793591    205976.97   -63738.547    4627.5728    -68366.12    2.3649138   0.98249976 
    1300    232.02017   -88.930537    205546.83   -63753.887     4678.037   -68431.924    2.8413893   0.98455581 
    1400    234.05591   -231.60724    205340.38   -63661.651     4719.082   -68380.733     3.353546   0.98554571 
    1500    233.50405   -163.41349    205113.29   -63703.782    4707.9551   -68411.737    3.8495677   0.98663681 
    1600    237.87727    102.70464    205127.39   -63590.805     4796.129   -68386.934    4.3772336   0.98656902 
    1700    237.96353   -125.47395    204996.78    -63516.49     4797.868   -68314.358    4.8898221   0.98719758 
    1800    239.89893   -60.080699    204926.76    -63535.01    4836.8901     -68371.9    5.3333302   0.98753488 
    1900    240.20049   -64.854442    204804.49   -63615.519      4842.97   -68458.489    5.7539929   0.98812445 
    2000     237.4258   -253.62576    204778.08   -63596.071    4787.0264   -68383.097    6.2785155   0.98825188 
    2100    242.17494   -20.332778     204526.5   -63450.833    4882.7794   -68333.612     6.872316   0.98946752 
    2200    244.38832   -76.152869    204483.45   -63468.141     4927.406   -68395.547    7.3390815   0.98967583 
    2300    241.71897    59.632535    204666.56    -63506.22     4873.586   -68379.806    7.8531227   0.98879038 
    2400    238.74056    195.61821    204655.85   -63554.281    4813.5346   -68367.816    8.3073848   0.98884212 
    2500    241.19079   -104.20062    204618.88   -63547.208    4862.9367   -68410.145    8.7196894   0.98902078 
    2600    242.63918   -36.663741    204677.03   -63389.421    4892.1396   -68281.561    9.2299383   0.98873979 
    2700    242.99161   -126.09639    204660.12   -63344.281    4899.2452   -68243.526    9.7510646   0.98882152 
    2800    243.88292    59.875873    204696.59   -63386.787    4917.2161   -68304.003    10.279804   0.98864532 
    2900    246.71182   -68.845692    204883.49   -63391.178    4974.2529   -68365.431    10.796765   0.98774346 
    3000    243.59375   -162.72997    204780.07   -63502.357    4911.3857   -68413.743    11.578516   0.98824231 
    3100    242.10924   -87.712992    204793.81   -63528.751    4881.4547   -68410.205    12.070104   0.98817598 
    3200    242.13825      -50.844    204733.26   -63507.945    4882.0396   -68389.985    12.622151   0.98846827 
    3300    239.80862   -90.011002    204602.15   -63597.883    4835.0691   -68432.952    13.108094   0.98910165 
    3400    243.09671   -6.6971865     204425.2   -63571.074    4901.3643   -68472.438    13.604089   0.98995784 
    3500    239.55423    84.899246     204385.4   -63608.735    4829.9401   -68438.675    14.087373   0.99015058 
    3600    239.25367   -17.431708    204360.11   -63690.148    4823.8801   -68514.028    14.573174   0.99027315 
    3700    240.47161   -91.311585    204293.83   -63752.221    4848.4365   -68600.658    15.075754    0.9905944 
    3800    238.00568    142.22041    204208.01   -63759.741     4798.718   -68558.459    15.740648   0.99101071 
    3900    235.96471   -85.556685     204194.3   -63815.574    4757.5675   -68573.141    16.346374   0.99107728 
    4000    239.48746    44.424442    204120.35   -63755.342    4828.5939   -68583.936    16.860016   0.99143632 
    4100    238.24513     224.5827     204192.8   -63735.281    4803.5458   -68538.827    17.312164   0.99108456 
    4200     243.6416    126.76098    204499.79   -63721.973    4912.3505   -68634.324    17.839062   0.98959676 
    4300    238.76949     56.58414    204563.93   -63706.665     4814.118   -68520.783    18.406016   0.98928647 
    4400    239.49201   -91.723273    204718.51   -63700.607    4828.6856   -68529.293    18.823201   0.98853947 
    4500    241.69741    114.09662    204911.95   -63693.691    4873.1514   -68566.842    19.299212   0.98760629 
    4600    241.20777  -0.96028755    204893.95   -63741.536    4863.2791   -68604.815    19.776532   0.98769303 
    4700    238.15104    75.469123    204903.23   -63767.562    4801.6486   -68569.211    20.380449   0.98764831 
    4800    238.02754    66.429659    205001.82   -63702.386    4799.1587   -68501.545    20.893801   0.98717332 
    4900    239.50509   -88.371101    204969.97   -63612.778    4828.9494   -68441.728     21.21692   0.98732674 
    5000     245.2797   -159.90214    204605.58   -63466.685    4945.3782   -68412.063    21.705398    0.9890851 
    5100    243.90545   -52.794306    204615.56   -63488.363    4917.6702   -68406.033    22.126809   0.98903684 
    5200    237.66349    237.43736     204623.9   -63582.173    4791.8185   -68373.991    22.583121   0.98899653 
    5300    240.61167    197.52818    204696.01   -63610.621    4851.2605   -68461.881    22.870935   0.98864813 
    5400    238.80234   -28.014302    204829.15   -63640.064    4814.7803   -68454.844    23.251147   0.98800552 
    5500    239.95244   -102.15286    204979.18   -63564.675    4837.9689   -68402.644    23.735246   0.98728236 
    5600    241.15288    26.192326    204757.63   -63595.334    4862.1724   -68457.506    24.231009    0.9883506 
    5700    238.18367   -62.751268     204788.9   -63689.547    4802.3066   -68491.854    24.683349   0.98819969 
    5800    237.42804   -54.805338    204926.25   -63702.153    4787.0715   -68489.224    25.073223   0.98753737 
    5900    236.67622    122.40792    204777.01   -63693.211     4771.913   -68465.124    25.267757   0.98825706 
    6000    237.43036    172.76653    204786.62   -63786.761    4787.1183   -68573.879    25.397691   0.98821069 
    6100    240.53711   -90.823355     204673.6   -63708.624     4849.757   -68558.381     25.73172   0.98875636 
    6200    238.81132    11.440921    204586.75   -63777.781    4814.9614   -68592.742    26.120125   0.98917611 
    6300    235.40901   -228.29843     204426.3   -63780.807    4746.3634   -68527.171    26.564261   0.98995249 
    6400    239.37693    230.16897    204357.44   -63722.688    4826.3653   -68549.053    26.963054   0.99028607 
    6500    243.37566    167.86183    204333.48   -63549.926    4906.9886   -68456.915    27.399469   0.99040222 
    6600    241.12198    73.219984    204571.05   -63601.027    4861.5494   -68462.577    27.818658   0.98925202 
    6700    236.87808   -277.76659    204591.41   -63723.909    4775.9831   -68499.892    28.208385   0.98915359 
    6800     240.9858   -132.17521    204625.56   -63677.657    4858.8038   -68536.461    28.767972   0.98898852 
    6900    239.79908   -111.41487    204561.69   -63626.164    4834.8768   -68461.041    29.308387   0.98929728 
    7000    238.91723   -246.53656    204538.06   -63535.139    4817.0967   -68352.235     29.71862   0.98941161 
    7100    238.36794    84.576417    204413.91   -63545.738    4806.0219    -68351.76    30.171729   0.99001251 
    7200    240.90933    28.546761    204386.62   -63570.429    4857.2618    -68427.69    30.515343    0.9901447 
    7300    238.30428   -68.292729     204189.8   -63667.165    4804.7384   -68471.904    30.932531   0.99109908 
    7400    237.45878    99.748682    204207.18   -63722.758    4787.6912    -68510.45    31.485143   0.99101476 
    7500    240.16477    68.976529    204270.97    -63650.92    4842.2499    -68493.17    31.740753   0.99070527 
    7600    236.90856   -114.16135     204171.6   -63750.003    4776.5975     -68526.6    32.020229   0.99118743 
    7700    239.19059   -82.161311    203969.17   -63762.956    4822.6084   -68585.564    32.362813   0.99217117 
    7800    240.94343    238.80504    203952.04   -63611.124    4857.9494   -68469.073    32.667252    0.9922545 
    7900    241.90197    199.52003    204375.09   -63641.753    4877.2757   -68519.029    33.191245   0.99020057 
    8000    240.08169    121.42395    204567.07   -63788.349    4840.5749   -68628.924    33.749373   0.98927129 
    8100    237.85541   -188.97596    204780.92   -63774.759    4795.6882   -68570.447    34.226092   0.98823821 
    8200    237.99725    -80.45555     204834.5   -63820.832    4798.5479    -68619.38    34.642817   0.98797969 
    8300    238.42552   -98.130266    204788.97   -63838.878    4807.1828   -68646.061    35.135588   0.98819934 
    8400    239.08834   -98.188925    204991.31    -63787.01    4820.5468   -68607.557    35.708552   0.98722395 
    8500    238.34653   -65.184846    204946.22   -63718.615    4805.5901   -68524.205    36.447164   0.98744112 
    8600    238.85567     -95.2114    204906.59   -63707.023    4815.8555   -68522.879    36.947882   0.98763209 
    8700    242.44721   -23.186957    204987.51   -63671.211    4888.2689    -68559.48     37.60222   0.98724225 
    8800    242.01114    54.245843    204877.37   -63725.744    4879.4768   -68605.221    37.970514   0.98777299 
    8900    235.37855    -53.61285    204887.75    -63785.66    4745.7492   -68531.409    38.399722   0.98772293 
    9000    239.10853    163.12722    204817.82   -63772.371    4820.9538   -68593.325    38.728658   0.98806017 
    9100    239.88887    20.521787    204924.87   -63778.679    4836.6872   -68615.366    39.081329   0.98754401 
    9200    237.69592   -134.45105    204919.34   -63828.513    4792.4725   -68620.985    39.454418   0.98757068 
    9300    240.27015    179.53791    204775.38   -63718.351    4844.3747   -68562.725     39.92709   0.98826491 
    9400     233.5747    44.395934    204742.46   -63804.119    4709.3796   -68513.498    40.337934   0.98842385 
    9500    241.84909   -29.725822    204727.59   -63672.045    4876.2095   -68548.254    40.921312   0.98849565 
    9600    239.77558   0.27342846    204680.65   -63741.715    4834.4031   -68576.118    41.432792   0.98872233 
    9700    238.64214   -40.224544    204633.73   -63653.964    4811.5503   -68465.514    41.866164   0.98894904 
    9800    242.15997    -110.8967    204503.14   -63642.636    4882.4775   -68525.114    42.373008   0.98958056 
    9900    237.09194   -198.96529    204301.01   -63749.271    4780.2949   -68529.566    43.010994   0.99055958 
   10000    239.39989   -104.61635    204156.21   -63771.668    4826.8284   -68598.497    43.771924   0.99126218 
   10100    234.38914   -20.241859    203975.21   -63831.261    4725.8006   -68557.061    44.512025   0.99214176 
   10200    237.90263   -163.66618    203851.45   -63726.751    4796.6403   -68523.391    44.999858   0.99274412 
   10300    233.31968   -134.31065    203940.77   -63810.887    4704.2378   -68515.125    45.532955   0.99230931 
   10400    239.80592   -208.27348    203899.11   -63732.392    4835.0147   -68567.407    46.137303   0.99251205 
   10500    237.30009     119.8676    203958.56   -63725.823    4784.4916   -68510.314    46.646475   0.99222278 
   10600    238.98579    22.561155    203935.78   -63647.004    4818.4791   -68465.483    47.075516   0.99233362 
   10700    241.75011    158.62986    203869.67   -63496.445    4874.2138   -68370.658    47.651262    0.9926554 
   10800    243.35199     49.49666    203805.45    -63546.28    4906.5113   -68452.791    48.194674   0.99296819 
   10900    243.10517     179.4563    204055.35   -63531.369    4901.5349   -68432.904    49.117042   0.99175214 
   11000    243.17241    77.299508    204162.51   -63479.453    4902.8906   -68382.343     49.79865   0.99123157 
   11100    240.82801   -29.908091    204040.58   -63518.022    4855.6223   -68373.644    50.247158    0.9918239 
   11200    238.29784    167.74685     203787.8   -63554.804    4804.6085   -68359.413    50.539919   0.99305416 
   11300    241.16835    121.27324    203795.47   -63473.973    4862.4843   -68336.458    50.797904   0.99301681 
   11400    241.48427    129.82804    203969.47   -63542.815     4868.854   -68411.669    51.295289   0.99216968 
   11500    242.87132    -11.64932    203970.78   -63574.255      4896.82   -68471.075    51.936715   0.99216332 
   11600    239.88405    16.269156    203981.98   -63634.031      4836.59   -68470.621    52.642695   0.99210887 
   11700    241.24899     249.8767    204170.86     -63626.5    4864.1102    -68490.61    53.222904   0.99119105 
   11800    242.87143    162.30588    204334.67   -63517.447    4896.8221   -68414.269    53.554129   0.99039641 
   11900    242.90382    203.96308     204402.6   -63660.153    4897.4752   -68557.629    54.118389   0.99006731 
   12000    234.78947   -71.863935    204432.92   -63734.737     4733.872   -68468.609     54.74621   0.98992044 
   12100    237.64602   -77.288735     204371.4   -63632.859    4791.4664   -68424.326    55.182329   0.99021845 
   12200    242.86831    325.06448    204602.65   -63484.159    4896.7592   -68380.918    55.585856   0.98909925 
   12300    242.18819    32.276305    204741.23   -63525.429    4883.0464   -68408.475    56.057548   0.98842979 
   12400     240.9605   -108.57526    204709.41   -63546.807    4858.2937     -68405.1    56.454126    0.9885834 
   12500    238.34172   -155.14477    204607.93    -63606.53    4805.4933   -68412.023    57.262267   0.98907373 
   12600    240.87022    -126.9061    204617.58   -63688.489    4856.4734   -68544.963    57.881237   0.98902708 
   12700    245.51917   -63.147229    204501.44   -63562.191    4950.2063   -68512.397    58.415019   0.98958876 
   12800    242.23771    149.71185    204710.94   -63588.944     4884.045   -68472.989    58.892831   0.98857604 
   12900    238.44131    11.655161    204793.32   -63651.026    4807.5012   -68458.527    59.541287   0.98817837 
   13000    238.12079     127.8893       204927   -63720.842    4801.0388   -68521.881     59.99887   0.98753372 
   13100    244.64262   -68.709511    205087.33    -63563.05    4932.5333   -68495.583    60.443254   0.98676171 
   13200    241.47722   -174.96731    205019.71   -63580.991    4868.7117   -68449.703    60.681771   0.98708719 
   13300    242.23296   -91.429036    204776.59   -63509.034    4883.9491   -68392.983    60.950735    0.9882591 
   13400     242.7914   -210.24607    204872.34     -63550.4    4895.2086   -68445.608    61.221229   0.98779721 
   13500    240.68495   -97.157147    204753.79   -63662.412     4852.738    -68515.15    61.169561   0.98836914 
   13600    239.89689    108.10618    204677.84   -63697.958    4836.8489   -68534.806    61.335687   0.98873589 
   13700    243.57098    81.769946    204712.55   -63739.399    4910.9265   -68650.326    61.957684   0.98856824 
   13800    238.59616     179.5987     204824.6   -63700.171    4810.6233   -68510.795    62.276937   0.98802747 
   13900    240.51491   -62.546694    204984.65   -63650.948    4849.3096   -68500.258    62.712519   0.98725603 
   14000    242.85259   -95.190824     204783.9   -63669.265    4896.4422   -68565.708    63.312549   0.98822382 
   14100    241.03117    260.83693     204728.2   -63619.105    4859.7184   -68478.823     63.87946   0.98849269 
   14200    239.05321    194.18552    204839.41   -63682.009    4819.8384   -68501.848    64.651485   0.98795603 
   14300    240.49765    -79.59947    204826.59   -63649.782    4848.9615   -68498.744    65.319079   0.98801785 
   14400    237.05878   -107.25389     204775.3    -63775.16    4779.6264   -68554.786    66.084766   0.98826531 
   14500     240.7141    -132.3358    204800.15   -63701.949    4853.3255   -68555.275    66.651228   0.98814542 
   14600    238.44093    63.722743    205003.44   -63687.719    4807.4936   -68495.212    67.051106   0.98716553 
   14700    239.91444   -122.73676    204806.58   -63627.272    4837.2028   -68464.475    67.532677   0.98811438 
   14800    236.82327   -75.027195    204934.44   -63725.582    4774.8779    -68500.46    68.007288   0.98749791 
   14900    237.31719    5.0111584    204927.65   -63780.715    4784.8364   -68565.551    68.445223    0.9875306 
   15000    237.40725   -233.73357    204918.29    -63788.37    4786.6522   -68575.023    68.815085   0.98757573 
   15100    234.83894    -27.39407    204999.78     -63795.5    4734.8696    -68530.37    69.215081   0.98718314 
   15200    238.02502    89.501469    205130.86   -63817.129    4799.1079   -68616.237     69.70616   0.98655233 
   15300    238.52063    60.788061    205098.61   -63796.733    4809.1005   -68605.834    70.308415   0.98670746 
   15400    237.93658    23.712385    205177.63   -63751.589    4797.3248   -68548.914    70.677644   0.98632745 
   15500    239.27602    158.93317    205403.83   -63709.775    4824.3309   -68534.106    71.307347   0.98524126 
   15600     236.6638   -153.35735    205380.97   -63747.257    4771.6626   -68518.919    71.678969   0.98535092 
   15700    238.71834   -243.71903    205122.77   -63668.993    4813.0867    -68482.08    72.009435   0.98659124 
   15800     238.3586   -135.45825    204843.52   -63717.291    4805.8335   -68523.124    72.144389   0.98793618 
   15900     235.7143   -77.942583    204885.94   -63763.703    4752.5186   -68516.222    72.286397   0.98773165 
   16000    234.91696    9.6745345    204881.33   -63806.949    4736.4426   -68543.392    72.479569   0.98775387 
   16100    237.99316    28.699199    204784.08   -63703.887    4798.4654   -68502.353    72.707349   0.98822295 
   16200    238.78438   0.33595473    204845.03   -63667.546    4814.4182   -68481.964    73.276412   0.98792893 
   16300    236.84919   -14.683737    204873.51   -63730.824    4775.4005   -68506.225    73.591274   0.98779159 
   16400     238.7994    42.083334    204939.38   -63714.961    4814.7211   -68529.682    74.307229    0.9874741 
   16500    241.21499   -109.46067    204967.83   -63551.022    4863.4247   -68414.446     74.78112   0.98733704 
   16600    238.82811   -242.35926    204896.65   -63599.779    4815.2999   -68415.078    75.412762   0.98768004 
   16700    241.13304   -39.795636    205041.58   -63590.725    4861.7724   -68452.498     75.92075    0.9869819 
   16800    240.22746   -114.74454    204982.67   -63571.196     4843.514    -68414.71    76.555724   0.98726555 
   16900    243.24459   -27.624738    204938.59   -63545.322    4904.3459   -68449.668    77.104369   0.98747791 
   17000     239.3546    133.05468    204948.06   -63562.612    4825.9151   -68388.527    77.441824   0.98743227 
   17100    243.62724   -59.091385    205015.18   -63521.763     4912.061   -68433.824    77.870745   0.98710897 
   17200     247.9163    54.053893    205114.99   -63451.347    4998.5378   -68449.885    78.237907   0.98662864 
   17300    243.02412   -190.89335    204876.56   -63553.154    4899.9008   -68453.055    78.839109   0.98777686 
   17400    241.45947    191.52846    204776.27   -63580.917    4868.3539   -68449.271    79.260741   0.98826065 
   17500    242.57836   -37.882531    205019.86   -63575.347    4890.9132   -68466.261    79.431586   0.98708643 
   17600    243.80571   -76.186468    204846.73    -63691.06    4915.6594   -68606.719    79.786405   0.98792073 
   17700     240.6802    320.80196    204883.84   -63562.383    4852.6421   -68415.025    80.121277   0.98774178 
   17800    241.36824   -87.463733    204913.06   -63624.318    4866.5145   -68490.832    80.615736   0.98760094 
   17900    242.04766   -68.516799    204739.67   -63597.922    4880.2131   -68478.135    80.676033   0.98843728 
   18000     242.8891    92.655312    204679.08   -63531.594    4897.1785   -68428.772    80.981782   0.98872992 
   18100    245.99839    122.24617    204715.58   -63504.797    4959.8686   -68464.665    81.318692   0.98855362 
   18200    239.20167    33.403407    204697.01   -63592.067    4822.8318   -68414.899    81.824789   0.98864332 
   18300    241.00985    143.26332    204656.35   -63541.062    4859.2886    -68400.35    82.730281    0.9888397 
   18400    243.18353    183.78204    204720.14   -63508.358    4903.1147   -68411.472    83.143495    0.9885316 
   18500    240.95119   -358.26628     204541.5    -63540.65     4858.106   -68398.756    83.158914   0.98939495 
   18600    241.00318   -190.66359    204345.17   -63623.155    4859.1541   -68482.309    83.426776   0.99034553 
   18700    242.08196    40.563838    204175.95   -63589.181    4880.9047   -68470.085    84.136384   0.99116634 
   18800      241.928     249.1628     204133.8   -63577.663    4877.8004   -68455.463    84.594659   0.99137097 
   18900    238.19528     96.83512    204033.19   -63593.606    4802.5407   -68396.147    84.904965   0.99185985 
   19000    239.79286     147.6098    204061.88   -63626.331    4834.7515   -68461.083    85.549054   0.99172041 
   19100    241.48467    94.125003       204019   -63644.346     4868.862   -68513.208    85.867987   0.99192881 
   19200    236.98514    56.189063    203944.88   -63653.833    4778.1416   -68431.975     86.10181   0.99228932 
   19300    239.68071    32.978885    203897.86   -63566.468    4832.4901   -68398.958    86.369386   0.99251815 
   19400    243.35197    179.76576     203793.6    -63548.67    4906.5109   -68455.181    86.828018   0.99302592 
   19500    236.07284   -54.176783    203894.12   -63557.642    4759.7477   -68317.389    87.497254   0.99253635 
   19600    238.44959    71.924592    203851.78   -63506.637     4807.668   -68314.305    87.893476   0.99274252 
   19700    236.28361    58.249232    203868.76   -63518.002    4763.9973   -68281.999    88.294436   0.99265984 
   19800    240.01244   -93.967334    203894.49   -63456.213    4839.1786   -68295.392    88.516802   0.99253458 
   19900    241.48378   -66.884901    203862.26   -63518.337    4868.8441   -68387.181    88.681688   0.99269147 
   20000    238.89409   -71.508515    203928.66   -63569.416    4816.6302   -68386.046    89.291425   0.99236827 
   20100    241.06299    159.29084    203943.62   -63511.029      4860.36    -68371.39    89.927893   0.99229546 
   20200    236.51222   -3.8687801    203907.96   -63600.141    4768.6066   -68368.748    90.696131   0.99246897 
   20300    241.88029    158.98527    203910.35   -63590.324    4876.8386   -68467.163    90.930229   0.99245738 
   20400    236.32529     129.2485    203826.17   -63672.029    4764.8375   -68436.867    91.467424   0.99286725 
   20500    238.13792    52.773541    204015.94   -63627.685    4801.3842    -68429.07    91.833059   0.99194372 
   20600    239.06471    185.62675    204088.01   -63639.129    4820.0703   -68459.199       92.463   0.99159343 
   20700    240.88842   -44.048891    204068.36    -63704.57    4856.8402    -68561.41    93.069952   0.99168888 
   20800    240.42605    81.059572    203833.06   -63582.932    4847.5179    -68430.45    93.533882   0.99283367 
   20900    236.43171     189.4597    203754.74   -63664.787    4766.9833    -68431.77     93.96906    0.9932153 
   21000    236.69779    126.20211    203825.13   -63651.553    4772.3481   -68423.901    94.201259   0.99287233 
   21100    238.99313   -6.7367663    203856.08   -63785.083     4818.627    -68603.71    94.738836   0.99272158 
   21200    236.96883    4.6474164    203924.58   -63772.445    4777.8128   -68550.258    95.030152   0.99238808 
   21300    240.44204   -144.06616    203781.53   -63696.695    4847.8402   -68544.535    95.184691   0.99308472 
   21400    236.35635   -8.9868709    203726.47   -63720.046    4765.4638    -68485.51    95.389753   0.99335315 
   21500    240.42521   -154.30542    203798.65    -63659.13     4847.501   -68506.631    95.927927    0.9930013 
   21600    239.95671    156.97171    204017.84    -63650.24    4838.0549   -68488.295    96.375471   0.99193446 
   21700    240.17387   -221.86543    204002.27    -63597.96    4842.4335   -68440.393    97.001128    0.9920102 
   21800    240.08562   -109.62334    204002.06   -63530.759     4840.654   -68371.413    97.616542   0.99201118 
   21900    241.71814    63.368116    203890.59   -63518.425    4873.5693   -68391.995    98.210506   0.99255356 
   22000    239.41752   -106.44279    203989.94   -63562.796    4827.1837    -68389.98    98.748509   0.99207012 
   22100    239.33688    324.90666    204173.15   -63610.903    4825.5578   -68436.461    99.291724   0.99117992 
   22200     238.1251     102.0183     204350.5     -63614.9    4801.1256   -68416.025    99.885133   0.99031972 
   22300    240.84145   -128.47357    204387.62       -63537    4855.8933   -68392.893    100.22702   0.99013983 
   22400    237.83718   -143.71815    204276.85   -63563.782    4795.3206   -68359.103    101.06343   0.99067675 
   22500     240.3531   -128.15787     204242.2   -63484.768     4846.047   -68330.815    101.54567   0.99084482 
   22600    244.01339   -83.742255    204152.74   -63378.945    4919.8466   -68298.792    101.91591     0.991279 
   22700    240.62573    265.04523    204178.34   -63504.219    4851.5438   -68355.763    102.74265   0.99115472 
   22800    242.75131   -107.20348    204350.05   -63492.347    4894.4002   -68386.747    103.41119   0.99032188 
   22900    241.55684   -8.0866637    204381.64   -63531.443     4870.317    -68401.76    103.61488   0.99016884 
   23000     241.4804    72.428408    204505.51   -63500.716    4868.7759   -68369.492    104.54771   0.98956908 
   23100     239.9966   -96.638228    204575.93   -63532.597    4838.8593   -68371.456    104.75978   0.98922845 
   23200    241.72087     161.4962    204352.99   -63541.045    4873.6243   -68414.669    105.08645   0.99030764 
   23300     242.3991    190.53672    204475.82   -63580.681    4887.2989    -68467.98    105.49001   0.98971275 
   23400    240.72533    89.015525    204626.77   -63633.502     4853.552   -68487.054    106.03436   0.98898267 
   23500    237.52381   -17.361743    204756.04   -63601.581    4789.0024   -68390.584    106.66099   0.98835827 
   23600    246.10739    57.796413    204759.06    -63586.14    4962.0663   -68548.207    107.00076   0.98834368 
   23700    239.38686    69.691431    204858.98   -63640.256    4826.5656   -68466.822    107.29009   0.98786163 
   23800    236.54123   -138.49742    204994.77   -63704.163    4769.1915   -68473.355    107.77899   0.98720728 
   23900    238.26845   -26.654549    204962.58   -63691.221    4804.0159   -68495.237     108.4052   0.98736234 
   24000    238.11957     -165.531    204926.61    -63654.16    4801.0142   -68455.174    108.76239   0.98753563 
   24100    242.40795   -240.26918    204759.16   -63548.987    4887.4775   -68436.465    109.11859   0.98834324 
   24200    241.60807    52.048097    204847.92   -63586.604      4871.35   -68457.954    109.71797   0.98791498 
   24300    236.46106   -120.91614     204786.7   -63691.036     4767.575   -68458.611    110.04526    0.9882103 
   24400    239.69274    19.454761     204790.3   -63658.215    4832.7327   -68490.948    110.29574   0.98819293 
   24500    236.09352   -170.52261    204799.99   -63709.525    4760.1646   -68469.689    110.63486   0.98814616 
   24600    235.84276   -84.421214     204783.9   -63646.246    4755.1087   -68401.355    111.13451   0.98822382 
   24700    238.49602   -163.76458    204807.37   -63585.264    4808.6043   -68393.869    111.54379   0.98811059 
   24800    243.35685   -94.972876    204833.34   -63557.636    4906.6093   -68464.246    111.97788    0.9879853 
   24900    238.90824   -16.008625    204565.36   -63600.401    4816.9155   -68417.316    112.11434   0.98927955 
   25000      241.961   -52.015156    204614.04    -63519.88    4878.4658   -68398.346    112.12545   0.98904421 
   25100    242.92088    29.558015    204739.25   -63534.188    4897.8193   -68432.008    112.30809   0.98843934 
   25200    239.69592    53.021208    204556.68   -63603.451    4832.7969   -68436.248    112.54376   0.98932152 
   25300    240.45975   -4.4855541    204591.18   -63657.237    4848.1975   -68505.435     112.9192   0.98915471 
   25400    239.11847   -69.017728    204671.72    -63636.83    4821.1542   -68457.984    113.50034   0.98876548 
   25500     236.8563    24.984766    204803.41   -63638.082    4775.5438   -68413.626    114.19978   0.98812969 
   25600    242.06513   -3.5054917    204599.52   -63646.439    4880.5653   -68527.004    114.48771   0.98911437 
   25693    240.29571    114.49609    204706.97   -63600.442    4844.8899   -68445.332    115.21328   0.98859518 
Loop time of 33.0517 on 12 procs for 25000 steps with 6765 atoms

Performance: 326.761 ns/day, 0.073 hours/ns, 756.391 timesteps/s
98.2% CPU use with 12 MPI tasks x no OpenMP threads

MPI task timing breakdown:
Section |  min time  |  avg time  |  max time  |%varavg| %total
---------------------------------------------------------------
Pair    | 24.433     | 25.312     | 25.929     |   8.7 | 76.58
Neigh   | 1.5033     | 1.5482     | 1.604      |   2.4 |  4.68
Comm    | 2.8303     | 3.4593     | 4.4455     |  26.2 | 10.47
Output  | 0.06938    | 0.071244   | 0.088574   |   2.0 |  0.22
Modify  | 2.0499     | 2.3688     | 2.7292     |  13.4 |  7.17
Other   |            | 0.292      |            |       |  0.88

Nlocal:        563.750 ave         585 max         550 min
Histogram: 1 0 2 4 3 1 0 0 0 1
Nghost:        1257.08 ave        1283 max        1226 min
Histogram: 1 0 1 2 1 1 2 3 0 1
Neighs:        0.00000 ave           0 max           0 min
Histogram: 12 0 0 0 0 0 0 0 0 0
FullNghs:      16141.2 ave       17052 max       15524 min
Histogram: 1 0 2 4 2 2 0 0 0 1

Total # of neighbors = 193694
Ave neighs/atom = 28.631781
Neighbor list builds = 1555
Dangerous builds = 0

unfix               2
unfix               3
unfix               4

write_data		data.whole_${NAME}
write_data		data.whole_Ibeam_MLmW_240K
System init for write_data ...


# Create the I-beam, width 65A
region beam block 46.252 111.252 0.0 INF 0.0 INF side out
delete_atoms region beam
Deleted 3949 atoms, new total = 2816

fix                 1 all momentum 10 linear 1 1 1 rescale
fix                 2 all nve
fix                 3 all temp/csvr ${TEMP} ${TEMP} 500.0 928347
fix                 3 all temp/csvr 240 ${TEMP} 500.0 928347
fix                 3 all temp/csvr 240 240 500.0 928347

# Run 0.05 ns equilibration
#
dump                2 all custom 1000 eq.${NAME}.dump id type x y z vx vy vz
dump                2 all custom 1000 eq.Ibeam_MLmW_240K.dump id type x y z vx vy vz
run                 10000
Per MPI rank memory allocation (min/avg/max) = 4.766 | 4.767 | 4.768 Mbytes
Step Temp Press Volume TotEng KinEng PotEng c_1[4] Density 
   25693     244.0213   -301.16166    204706.97    -25910.24    2047.5779   -27957.818    120.25097   0.41151279 
   25700    249.95635   -281.48855    204706.97   -25916.475    2097.3788   -28013.854    120.40338   0.41151279 
   25800    245.64241    23.887174    204706.97   -25963.341    2061.1806   -28024.522    121.02528   0.41151279 
   25900    242.96202    298.14557    204706.97   -26065.095    2038.6895   -28103.785    121.79849   0.41151279 
   26000     242.6349    41.125298    204706.97   -26088.231    2035.9447   -28124.176    122.15552   0.41151279 
   26100    235.97188   -229.65592    204706.97   -26099.027    1980.0354   -28079.063    122.46786   0.41151279 
   26200    243.87065   -10.250255    204706.97   -26069.123    2046.3138   -28115.437    123.09872   0.41151279 
   26300    245.12799    109.00972    204706.97   -26017.635    2056.8641   -28074.499    123.57514   0.41151279 
   26400    247.19637   -74.466764    204706.97   -26054.383    2074.2198   -28128.603    123.40365   0.41151279 
   26500    241.32416   -113.77189    204706.97   -26062.594    2024.9463    -28087.54    123.86299   0.41151279 
   26600    237.35301    -318.0625    204706.97   -26102.632    1991.6244   -28094.256    124.29825   0.41151279 
   26700    242.08796    5.6025389    204706.97   -26116.891    2031.3553   -28148.246    125.20325   0.41151279 
   26800    242.68907   -170.86674    204706.97   -26106.335    2036.3992   -28142.734    125.76006   0.41151279 
   26900    242.75766   -15.851105    204706.97   -26124.737    2036.9748   -28161.712    126.00717   0.41151279 
   27000    241.56785   -67.453049    204706.97   -26084.936     2026.991   -28111.927    125.98787   0.41151279 
   27100    236.92537   -158.36631    204706.97   -26120.718    1988.0361   -28108.754    126.44829   0.41151279 
   27200    239.02993    -44.44222    204706.97     -26157.7    2005.6954   -28163.395    127.20388   0.41151279 
   27300    242.17112   -15.641531    204706.97    -26128.61    2032.0531   -28160.663    127.79409   0.41151279 
   27400    239.69064     45.01641    204706.97   -26146.307    2011.2394   -28157.547     128.1663   0.41151279 
   27500    238.71374   -211.62521    204706.97   -26109.327    2003.0423   -28112.369    128.87263   0.41151279 
   27600    244.49969    127.46686    204706.97   -26085.467     2051.592   -28137.059    129.70739   0.41151279 
   27700    239.20346   -114.72617    204706.97   -26060.463    2007.1515   -28067.615    130.59582   0.41151279 
   27800    244.28964   -187.70906    204706.97   -26147.274    2049.8296   -28197.103    131.09952   0.41151279 
   27900    242.95428   -191.43078    204706.97   -26127.685    2038.6246   -28166.309     131.7222   0.41151279 
   28000    243.92805    63.683058    204706.97   -26101.992    2046.7955   -28148.787    132.14046   0.41151279 
   28100    241.17161    123.18994    204706.97   -26135.559    2023.6663   -28159.226     132.4937   0.41151279 
   28200    239.24751    71.104141    204706.97   -26148.738    2007.5212   -28156.259    132.84233   0.41151279 
   28300    230.60139   -107.15053    204706.97   -26168.435    1934.9717   -28103.407    133.21744   0.41151279 
   28400    237.17624   -58.551568    204706.97   -26147.477    1990.1412   -28137.619    133.85705   0.41151279 
   28500    246.07979    51.637296    204706.97   -26094.259    2064.8507    -28159.11    134.11746   0.41151279 
   28600     243.4977   -203.27483    204706.97    -26065.98    2043.1844   -28109.165     134.9751   0.41151279 
   28700    242.60788   -265.51823    204706.97   -26072.992     2035.718    -28108.71    135.51701   0.41151279 
   28800     242.8658   -37.514822    204706.97   -26100.275    2037.8821   -28138.157     136.1529   0.41151279 
   28900    240.35189    101.28804    204706.97   -26170.893     2016.788   -28187.681    136.72033   0.41151279 
   29000    237.55144   -152.58795    204706.97   -26221.632    1993.2894   -28214.921    137.30746   0.41151279 
   29100    234.28755   -88.328268    204706.97    -26182.88    1965.9022   -28148.782    138.72132   0.41151279 
   29200    237.44596    94.152368    204706.97   -26170.195    1992.4044   -28162.599    139.33746   0.41151279 
   29300    241.86702   -1.7673224    204706.97   -26163.534    2029.5014   -28193.035    139.36202   0.41151279 
   29400    238.52368   -154.15611    204706.97   -26141.121    2001.4475   -28142.569    139.38817   0.41151279 
   29500     242.7163   -71.540528    204706.97   -26119.165    2036.6277   -28155.793    140.02057   0.41151279 
   29600    238.46622   -35.813733    204706.97    -26138.75    2000.9653   -28139.715    140.98418   0.41151279 
   29700    243.05779    125.94612    204706.97   -26150.739    2039.4931   -28190.232    141.03515   0.41151279 
   29800     243.2508    39.640219    204706.97   -26154.645    2041.1126   -28195.757    141.51676   0.41151279 
   29900    243.01608   -76.295786    204706.97   -26139.777    2039.1431   -28178.921    142.25066   0.41151279 
   30000    239.06748   -13.901847    204706.97   -26233.141    2006.0105   -28239.151    142.48087   0.41151279 
   30100     239.5912    111.06586    204706.97   -26159.813    2010.4051   -28170.218    142.98084   0.41151279 
   30200    238.42296   -42.820262    204706.97   -26224.359    2000.6024   -28224.961    142.76048   0.41151279 
   30300    236.09134   -162.84231    204706.97   -26247.905    1981.0378   -28228.943    142.92298   0.41151279 
   30400    243.79216   -101.10535    204706.97   -26166.835    2045.6552    -28212.49    142.93725   0.41151279 
   30500     248.7312    -36.61532    204706.97   -26121.228    2087.0986   -28208.326    143.34195   0.41151279 
   30600    249.19517    -245.5988    204706.97   -26094.098    2090.9918    -28185.09    143.72194   0.41151279 
   30700     237.4607   0.69248999    204706.97   -26191.621    1992.5281   -28184.149    143.80549   0.41151279 
   30800    247.11803   -122.25076    204706.97   -26145.489    2073.5625   -28219.051    144.00673   0.41151279 
   30900     243.1086   -109.37552    204706.97   -26189.794    2039.9195   -28229.714    144.50851   0.41151279 
   31000    237.55704    110.34286    204706.97   -26247.039    1993.3364   -28240.375    144.89768   0.41151279 
   31100    236.99987    123.56403    204706.97   -26247.369    1988.6613    -28236.03    145.20668   0.41151279 
   31200    236.47064   -20.564115    204706.97   -26226.246    1984.2205   -28210.467    145.93713   0.41151279 
   31300    239.99401   -4.3818976    204706.97   -26233.014     2013.785   -28246.799    146.56239   0.41151279 
   31400    238.60592   -84.876739    204706.97   -26201.647    2002.1376   -28203.785    146.92953   0.41151279 
   31500    236.37469    56.017371    204706.97   -26173.528    1983.4153   -28156.944    147.19832   0.41151279 
   31600    236.75228  -0.56376288    204706.97   -26244.088    1986.5837   -28230.672    147.49215   0.41151279 
   31700    244.17893    167.30877    204706.97    -26228.28    2048.9006   -28277.181    147.92943   0.41151279 
   31800    231.73571    167.98559    204706.97   -26284.669    1944.4898   -28229.159    148.52985   0.41151279 
   31900    238.03535   -196.09013    204706.97   -26253.752    1997.3499   -28251.102    149.27703   0.41151279 
   32000    241.91897   -288.87736    204706.97   -26165.866    2029.9373   -28195.803    149.50369   0.41151279 
   32100    234.95493   -155.02561    204706.97   -26202.645    1971.5022   -28174.147      149.488   0.41151279 
   32200    235.01675   -4.0246948    204706.97   -26209.464    1972.0209   -28181.485    149.41391   0.41151279 
   32300    237.96941    58.923568    204706.97   -26185.197    1996.7966   -28181.993    150.19621   0.41151279 
   32400    235.55778    5.5278706    204706.97   -26210.516    1976.5607   -28187.076    151.32732   0.41151279 
   32500    238.42619    131.50617    204706.97   -26208.326    2000.6294   -28208.956    151.49274   0.41151279 
   32600    241.32255    35.891304    204706.97   -26147.096    2024.9327   -28172.029    152.48057   0.41151279 
   32700    239.92585   -124.13288    204706.97   -26157.557    2013.2131    -28170.77    153.50277   0.41151279 
   32800    240.64963   -380.60728    204706.97   -26174.981    2019.2863   -28194.267    153.87404   0.41151279 
   32900    240.46889   -186.30419    204706.97   -26268.779    2017.7697   -28286.548    154.40384   0.41151279 
   33000    236.93978   -270.70563    204706.97   -26298.748    1988.1571   -28286.905    154.97996   0.41151279 
   33100    241.37402    155.25093    204706.97   -26238.878    2025.3646   -28264.242    154.87295   0.41151279 
   33200    240.81099    108.26065    204706.97   -26208.428    2020.6403   -28229.068    155.07043   0.41151279 
   33300    236.10216   -207.50259    204706.97   -26207.521    1981.1286    -28188.65    155.37295   0.41151279 
   33400    242.27514   -49.795813    204706.97   -26230.648    2032.9259   -28263.574    155.56381   0.41151279 
   33500    237.91863   -4.6799272    204706.97   -26303.881    1996.3705   -28300.251    156.07402   0.41151279 
   33600    234.78379   -133.16732    204706.97   -26244.681    1970.0661   -28214.747    156.28041   0.41151279 
   33700    236.81543   -94.808585    204706.97   -26192.547    1987.1136    -28179.66    156.34059   0.41151279 
   33800    240.37012   -163.61225    204706.97   -26146.638     2016.941   -28163.579    157.11967   0.41151279 
   33900    246.43003    102.56564    204706.97   -26158.131    2067.7895   -28225.921    157.82033   0.41151279 
   34000    245.55554    43.166241    204706.97   -26152.386    2060.4517   -28212.837    158.38875   0.41151279 
   34100    245.58623     -61.6197    204706.97   -26124.205    2060.7092   -28184.914    158.67605   0.41151279 
   34200    245.18282   -215.46916    204706.97   -26180.794    2057.3242   -28238.118    158.71005   0.41151279 
   34300    240.78299    42.335551    204706.97   -26169.676    2020.4053   -28190.081    159.28405   0.41151279 
   34400    239.74741    94.699453    204706.97   -26169.333    2011.7158   -28181.049    160.03583   0.41151279 
   34500    241.96855   -41.821808    204706.97   -26169.263    2030.3533   -28199.616    160.86752   0.41151279 
   34600     238.8288    -26.72683    204706.97   -26219.929    2004.0077   -28223.937    161.74333   0.41151279 
   34700     243.6753    149.64106    204706.97   -26198.136    2044.6747    -28242.81    162.72096   0.41151279 
   34800    235.70803   -14.522441    204706.97    -26239.54    1977.8215   -28217.361    163.37365   0.41151279 
   34900    239.10886   -51.429067    204706.97   -26173.129    2006.3577   -28179.487    164.32328   0.41151279 
   35000    237.55379   -259.39082    204706.97    -26268.39    1993.3092   -28261.699     165.0186   0.41151279 
   35100    240.75884     58.17325    204706.97   -26246.382    2020.2027   -28266.585    165.20891   0.41151279 
   35200    236.36952    4.5541299    204706.97   -26279.486     1983.372   -28262.858    165.87487   0.41151279 
   35300    237.94026   -30.466763    204706.97   -26263.054     1996.552   -28259.606     165.9628   0.41151279 
   35400    240.02098   -5.9630131    204706.97   -26213.355    2014.0113   -28227.366    166.99864   0.41151279 
   35500    242.27357   -28.562424    204706.97   -26188.477    2032.9128    -28221.39    168.09545   0.41151279 
   35600    241.42642   -175.85627    204706.97   -26186.915    2025.8043   -28212.719    168.74668   0.41151279 
   35693    240.69894    20.599024    204706.97   -26202.049    2019.7001   -28221.749    169.10805   0.41151279 
Loop time of 13.2026 on 12 procs for 10000 steps with 2816 atoms

Performance: 327.209 ns/day, 0.073 hours/ns, 757.428 timesteps/s
96.6% CPU use with 12 MPI tasks x no OpenMP threads

MPI task timing breakdown:
Section |  min time  |  avg time  |  max time  |%varavg| %total
---------------------------------------------------------------
Pair    | 0.00091261 | 3.7049     | 9.2949     | 205.9 | 28.06
Neigh   | 0.0015763  | 0.22042    | 0.55788    |  48.9 |  1.67
Comm    | 0.017553   | 3.5837     | 9.3931     | 202.8 | 27.14
Output  | 0.048578   | 0.049844   | 0.057004   |   1.0 |  0.38
Modify  | 0.91996    | 5.0253     | 12.801     | 235.8 | 38.06
Other   |            | 0.6184     |            |       |  4.68

Nlocal:        234.667 ave         570 max           0 min
Histogram: 4 0 4 0 0 0 0 0 0 4
Nghost:        573.917 ave        1262 max           0 min
Histogram: 4 0 0 4 0 0 0 0 0 4
Neighs:        0.00000 ave           0 max           0 min
Histogram: 12 0 0 0 0 0 0 0 0 0
FullNghs:      6494.50 ave       16485 max           0 min
Histogram: 4 2 2 0 0 0 0 0 0 4

Total # of neighbors = 77934
Ave neighs/atom = 27.675426
Neighbor list builds = 586
Dangerous builds = 0


write_data		data.${NAME}
write_data		data.Ibeam_MLmW_240K
System init for write_data ...
Total wall time: 0:00:47
