
# read in graphite data
read_data data.graphite group graphite extra/atom/types 1
Reading data file ...
  orthogonal box = (0.0000000 0.0000000 0.0000000) to (157.50400 36.487659 10.062000)
  6 by 2 by 1 MPI processor grid
  reading atoms ...
  6720 atoms
  reading velocities ...
  6720 velocities
  read_data CPU = 0.013 seconds

# Insert water
read_data data.Ibeam_MLmW_240K add append shift 0.0 0.0 ${Z_G} group water offset 1 0 0 0 0
read_data data.Ibeam_MLmW_240K add append shift 0.0 0.0 10.062 group water offset 1 0 0 0 0
Reading data file ...
  orthogonal box = (0.0000000 0.0000000 0.0000000) to (157.50400 36.487659 45.872046)
  6 by 1 by 2 MPI processor grid
  reading atoms ...
  2816 atoms
  reading velocities ...
  2816 velocities
  read_data CPU = 0.006 seconds


# Define potential
# CHECK ON THIS %%%%%%%%%%%%
#
pair_style sw
pair_coeff * * MLC_e.sw C mW


# Delete water and ice atoms that are overlapping
#
delete_atoms overlap 2.5 water graphite
System init for delete_atoms ...
Neighbor list info ...
  update every 1 steps, delay 10 steps, check yes
  max neighbors/atom: 2000, page size: 100000
  master list distance cutoff = 6.6747184
  ghost atom cutoff = 6.6747184
  binsize = 3.3373592, bins = 48 11 14
  2 neighbor lists, perpetual/occasional/extra = 1 1 0
  (1) command delete_atoms, occasional, copy from (2)
      attributes: full, newton on
      pair build: copy
      stencil: none
      bin: none
  (2) pair sw, perpetual
      attributes: full, newton on
      pair build: full/bin/atomonly
      stencil: full/bin/3d
      bin: standard
Deleted 100 atoms, new total = 9436

write_data test.${NAME}
write_data test.Ibeam_240K
System init for write_data ...
Neighbor list info ...
  update every 1 steps, delay 10 steps, check yes
  max neighbors/atom: 2000, page size: 100000
  master list distance cutoff = 6.6747184
  ghost atom cutoff = 6.6747184
  binsize = 3.3373592, bins = 48 11 14
  1 neighbor lists, perpetual/occasional/extra = 1 0 0
  (1) pair sw, perpetual
      attributes: full, newton on
      pair build: full/bin/atomonly
      stencil: full/bin/3d
      bin: standard


# Fix graphite atoms in place
#
fix 1 graphite setforce 0.0 0.0 0.0
velocity graphite set 0.0 0.0 0.0
velocity water create ${TEMP} 120598 rot yes dist gaussian
velocity water create 240 120598 rot yes dist gaussian
timestep 5.0

# Define output
#

compute 1 water msd
compute 2 water stress/atom NULL
compute 3 water temp

thermo 100
thermo_style custom step c_3 press vol etotal ke pe c_1[4] density

# Neighbor lists
#
neigh_modify delay 0 every 1 check yes




# Set fixes
#
fix                 2 water momentum 10 linear 1 1 1 rescale
fix                 3 all nve
fix                 4 water temp/csvr ${TEMP} ${TEMP} 500.0 928347
fix                 4 water temp/csvr 240 ${TEMP} 500.0 928347
fix                 4 water temp/csvr 240 240 500.0 928347

# Run 0.25 ns equilibration
#
dump                1 all custom 100 eq.${NAME}.dump id type x y z vx vy vz
dump                1 all custom 100 eq.Ibeam_240K.dump id type x y z vx vy vz
run                 50000
Per MPI rank memory allocation (min/avg/max) = 4.684 | 5.775 | 6.153 Mbytes
Step c_3 Press Volume TotEng KinEng PotEng c_1[4] Density 
       0          240    -478.2943    263624.46   -24723.372    1942.2958   -26665.668            0   0.81656126 
     100    254.50094   -919.75897    263624.46   -24853.138    2059.6505   -26912.788    1.2587504   0.81656126 
     200     257.7585   -449.30233    263624.46   -25040.345    2086.0136   -27126.359    2.2726411   0.81656126 
     300    253.55498   -221.46603    263624.46   -25172.532    2051.9949   -27224.527    3.4798043   0.81656126 
     400    253.93825   -102.09353    263624.46   -25294.996    2055.0967   -27350.092    4.6970735   0.81656126 
     500    247.70424   -27.709369    263624.46   -25362.948    2004.6455   -27367.593    5.8425989   0.81656126 
     600    249.28939   -29.213172    263624.46   -25360.553    2017.4739   -27378.027    6.6605302   0.81656126 
     700    249.53054   -198.44452    263624.46   -25419.782    2019.4255   -27439.208    7.2989856   0.81656126 
     800    249.74428   -259.69322    263624.46   -25444.233    2021.1553   -27465.388    7.8330726   0.81656126 
     900    243.91177   -346.59235    263624.46   -25503.462    1973.9534   -27477.415    8.2613038   0.81656126 
    1000    244.39575   -363.10677    263624.46   -25575.812    1977.8702   -27553.683    8.5817908   0.81656126 
    1100    242.22601   -425.94856    263624.46   -25575.279    1960.3107    -27535.59    8.9148477   0.81656126 
    1200    247.20997   -200.07711    263624.46    -25608.91    2000.6454   -27609.556    9.6211868   0.81656126 
    1300    243.13624   -149.70564    263624.46   -25566.552    1967.6771   -27534.229    10.164955   0.81656126 
    1400    242.22226   -359.64098    263624.46    -25614.49    1960.2804   -27574.771    10.585254   0.81656126 
    1500    239.20856   -334.59984    263624.46   -25643.692    1935.8908   -27579.583    11.090721   0.81656126 
    1600    240.76287   -271.41913    263624.46   -25624.655    1948.4696   -27573.125    11.606757   0.81656126 
    1700     245.6354   -168.08018    263624.46   -25653.815    1987.9026   -27641.717    12.157696   0.81656126 
    1800     243.3333   -138.26064    263624.46   -25629.704    1969.2719   -27598.976    12.625255   0.81656126 
    1900    243.18448   -182.40106    263624.46   -25594.195    1968.0675   -27562.263    13.015107   0.81656126 
    2000    246.98414   -188.98229    263624.46   -25566.484    1998.8178   -27565.302      13.5089   0.81656126 
    2100    243.64975   -323.05074    263624.46   -25683.649    1971.8329   -27655.482    13.971805   0.81656126 
    2200    235.29447   -317.79291    263624.46   -25654.802    1904.2144   -27559.017    14.539089   0.81656126 
    2300    245.53688   -193.18951    263624.46   -25648.558    1987.1052   -27635.663     15.20008   0.81656126 
    2400     242.6786   -144.95157    263624.46   -25676.451    1963.9735   -27640.425    15.797753   0.81656126 
    2500    241.06994   -297.20717    263624.46   -25711.269    1950.9547   -27662.223    16.021023   0.81656126 
    2600    232.09862   -271.50209    263624.46   -25731.294    1878.3508   -27609.645    16.121842   0.81656126 
    2700    247.77742   -319.84446    263624.46   -25715.718    2005.2377   -27720.956     16.31621   0.81656126 
    2800    243.79168   -262.90959    263624.46   -25674.216    1972.9815   -27647.197    16.913853   0.81656126 
    2900    241.72038    -281.2455    263624.46   -25693.032    1956.2187   -27649.251    17.348469   0.81656126 
    3000    239.92384   -391.56509    263624.46   -25686.761    1941.6795    -27628.44    17.776474   0.81656126 
    3100    246.02287   -219.87846    263624.46    -25666.13    1991.0383   -27657.168    18.415561   0.81656126 
    3200    246.81923   -247.11675    263624.46   -25730.587    1997.4831    -27728.07    18.905388   0.81656126 
    3300    233.64683   -322.39799    263624.46   -25827.977    1890.8802   -27718.857    19.291824   0.81656126 
    3400    240.39421   -102.20951    263624.46   -25778.847    1945.4861   -27724.333    19.440661   0.81656126 
    3500    236.54888   -310.63718    263624.46   -25777.238    1914.3663   -27691.605    19.546109   0.81656126 
    3600    237.39283    -306.9098    263624.46   -25771.849    1921.1963   -27693.045    19.467876   0.81656126 
    3700    243.25382   -355.97015    263624.46   -25734.164    1968.6287   -27702.793    19.954469   0.81656126 
    3800    242.21054   -418.90573    263624.46    -25719.73    1960.1855   -27679.916     20.32626   0.81656126 
    3900    240.16983   -270.55533    263624.46   -25715.711    1943.6703   -27659.382    20.893956   0.81656126 
    4000    243.26857   -185.58021    263624.46   -25767.789    1968.7481   -27736.537    21.401982   0.81656126 
    4100    241.70476   -140.69689    263624.46   -25752.993    1956.0923   -27709.086    21.600829   0.81656126 
    4200    240.85581   -392.99763    263624.46   -25716.317    1949.2218   -27665.539     22.10548   0.81656126 
    4300    238.77917   -268.47561    263624.46   -25789.601    1932.4158   -27722.016    22.340371   0.81656126 
    4400    234.57171   -256.86764    263624.46   -25736.633    1898.3652   -27634.998    22.640061   0.81656126 
    4500    234.59106   -230.14908    263624.46   -25772.747    1898.5218   -27671.269    22.973095   0.81656126 
    4600    234.14135   -151.44658    263624.46   -25836.273    1894.8824   -27731.155    23.386236   0.81656126 
    4700    240.00746   -134.15572    263624.46   -25767.704    1942.3562    -27710.06    23.545181   0.81656126 
    4800    241.88014   -177.86177    263624.46   -25744.932    1957.5116   -27702.443    23.961345   0.81656126 
    4900    248.40099   -190.83562    263624.46   -25694.429    2010.2842   -27704.713    24.092307   0.81656126 
    5000    245.14964   -190.04651    263624.46   -25762.313    1983.9713   -27746.284     24.33891   0.81656126 
    5100     240.9843   -284.91497    263624.46   -25734.503    1950.2617   -27684.765    24.824042   0.81656126 
    5200    241.86367   -223.28403    263624.46   -25765.692    1957.3783    -27723.07    25.610885   0.81656126 
    5300    238.20067   -193.97688    263624.46   -25837.467     1927.734   -27765.201    26.035564   0.81656126 
    5400    236.48101   -250.68125    263624.46   -25816.031     1913.817   -27729.848    26.408491   0.81656126 
    5500    237.72434   -297.17737    263624.46   -25794.198    1923.8792   -27718.077    26.871819   0.81656126 
    5600    237.97241      -282.13    263624.46   -25806.405    1925.8867   -27732.292    27.458601   0.81656126 
    5700    240.14721   -120.39426    263624.46   -25792.121    1943.4872   -27735.608    28.186901   0.81656126 
    5800    243.55815   -250.08618    263624.46   -25781.066    1971.0916   -27752.158    28.674593   0.81656126 
    5900    237.24398   -245.15029    263624.46   -25817.162    1919.9916   -27737.154    29.131587   0.81656126 
    6000    233.94565   -335.63968    263624.46   -25820.108    1893.2986   -27713.407    29.502225   0.81656126 
    6100    239.20594   -328.98839    263624.46   -25841.013    1935.8696   -27776.883    30.153497   0.81656126 
    6200     237.1841   -341.73556    263624.46   -25840.088     1919.507   -27759.595    30.685823   0.81656126 
    6300     243.8666   -288.80878    263624.46   -25765.571    1973.5878   -27739.159    31.188452   0.81656126 
    6400    238.39156   -194.09114    263624.46   -25805.347    1929.2789   -27734.626    31.380404   0.81656126 
    6500    234.35056   -147.59692    263624.46   -25796.882    1896.5755   -27693.457    31.792768   0.81656126 
    6600     235.3744   -189.85203    263624.46    -25810.24    1904.8613   -27715.102    31.906278   0.81656126 
    6700     243.0268   -136.27234    263624.46   -25826.841    1966.7915   -27793.632    32.282281   0.81656126 
    6800    239.28387   -239.03855    263624.46    -25809.69    1936.5002    -27746.19    32.876539   0.81656126 
    6900    240.03048   -361.42557    263624.46   -25779.858    1942.5425   -27722.401    33.479588   0.81656126 
    7000    239.54505   -311.22278    263624.46    -25763.23    1938.6139   -27701.844    33.728604   0.81656126 
    7100    240.57223    -438.6081    263624.46   -25771.125    1946.9269   -27718.052    34.006939   0.81656126 
    7200    230.87733   -245.60149    263624.46   -25842.145     1868.467   -27710.612    34.680484   0.81656126 
    7300    230.79864   -118.30108    263624.46    -25876.44    1867.8302    -27744.27    35.310938   0.81656126 
    7400    236.41503    -93.87944    263624.46   -25810.304     1913.283   -27723.587    35.844021   0.81656126 
    7500    242.55924   -232.50021    263624.46   -25769.789    1963.0075   -27732.796    36.394861   0.81656126 
    7600    247.44504    -412.8894    263624.46   -25731.197    2002.5478   -27733.745    36.743847   0.81656126 
    7700    243.61856   -283.94609    263624.46   -25784.464    1971.5805   -27756.045    36.836946   0.81656126 
    7800     233.4304   -350.42144    263624.46   -25842.404    1889.1287   -27731.532    37.040812   0.81656126 
    7900    235.43069   -108.74867    263624.46   -25792.103    1905.3169    -27697.42     37.41952   0.81656126 
    8000    243.26051   -137.49947    263624.46   -25737.121    1968.6828   -27705.804     38.03741   0.81656126 
    8100    244.48478   -149.61119    263624.46   -25721.633    1978.5907   -27700.224     38.47753   0.81656126 
    8200    241.23244   -183.79935    263624.46   -25739.504    1952.2698   -27691.773    38.318987   0.81656126 
    8300    245.45063   -406.54634    263624.46   -25713.999    1986.4072   -27700.406    38.320406   0.81656126 
    8400    240.74082   -256.29805    263624.46   -25691.263    1948.2912   -27639.554    38.605501   0.81656126 
    8500    237.10773   -264.16189    263624.46   -25726.413    1918.8889   -27645.302    38.826278   0.81656126 
    8600    239.74697   -268.88548    263624.46   -25726.768    1940.2481   -27667.016    39.312323   0.81656126 
    8700    242.29179   -212.41441    263624.46   -25758.349     1960.843   -27719.192    39.785768   0.81656126 
    8800    237.11056   -275.89807    263624.46    -25752.72    1918.9119   -27671.632     40.15867   0.81656126 
    8900     236.5927   -244.26614    263624.46    -25795.61    1914.7209   -27710.331    40.473058   0.81656126 
    9000    242.13118   -288.50085    263624.46   -25765.881    1959.5432   -27725.425    40.771563   0.81656126 
    9100    240.31594   -284.03753    263624.46   -25784.766    1944.8527   -27729.618    41.129619   0.81656126 
    9200     241.2012   -209.55316    263624.46   -25721.252     1952.017   -27673.269     41.41495   0.81656126 
    9300    237.41033   -186.34851    263624.46   -25797.131    1921.3379   -27718.469    41.648148   0.81656126 
    9400    240.59115   -162.97006    263624.46   -25784.078      1947.08   -27731.158     42.05198   0.81656126 
    9500    234.68141   -290.97515    263624.46   -25810.529     1899.253   -27709.782    42.118295   0.81656126 
    9600    239.49316   -313.65489    263624.46   -25809.548     1938.194   -27747.742    42.501575   0.81656126 
    9700    235.49509   -400.31105    263624.46   -25783.822     1905.838    -27689.66    42.844662   0.81656126 
    9800    247.15956   -258.30659    263624.46    -25732.83    2000.2374   -27733.068    43.084825   0.81656126 
    9900    246.73327   -210.89349    263624.46   -25765.951    1996.7875   -27762.739    43.487228   0.81656126 
   10000    237.20066   -214.69768    263624.46   -25772.732    1919.6411   -27692.373    43.806535   0.81656126 
   10100     241.1492   -194.09402    263624.46   -25784.217    1951.5962   -27735.813    43.942181   0.81656126 
   10200    242.69173   -241.47374    263624.46   -25729.206    1964.0797   -27693.286     44.30085   0.81656126 
   10300    247.81891   -267.28544    263624.46   -25726.166    2005.5735   -27731.739    44.687437   0.81656126 
   10400    243.96354   -119.86581    263624.46    -25719.86    1974.3724   -27694.233    45.381146   0.81656126 
   10500    241.05741   -234.93914    263624.46   -25780.629    1950.8534   -27731.482    45.727405   0.81656126 
   10600    240.99101   -296.06864    263624.46   -25782.074     1950.316    -27732.39    45.992611   0.81656126 
   10700    239.76049   -179.11697    263624.46   -25810.188    1940.3575   -27750.545     46.84896   0.81656126 
   10800    232.20816   -240.03639    263624.46   -25845.938    1879.2373   -27725.175    47.031347   0.81656126 
   10900    235.59014   -266.23155    263624.46    -25876.05    1906.6073   -27782.658    47.508197   0.81656126 
   11000    241.51458    -356.9401    263624.46   -25854.402    1954.5532   -27808.955    47.796328   0.81656126 
   11100    238.52284   -373.13081    263624.46   -25819.726    1930.3413   -27750.067    47.890687   0.81656126 
   11200      234.409   -306.42312    263624.46   -25845.059    1897.0484   -27742.107    48.160054   0.81656126 
   11300    237.59531   -213.90271    263624.46   -25831.075    1922.8349    -27753.91    48.818248   0.81656126 
   11400    238.89588   -277.88491    263624.46    -25809.18    1933.3603    -27742.54    49.199854   0.81656126 
   11500    239.85802   -273.07245    263624.46   -25759.143    1941.1468    -27700.29    49.608779   0.81656126 
   11600    241.52069   -277.25637    263624.46   -25710.353    1954.6026   -27664.956    49.779552   0.81656126 
   11700    244.47323   -296.84861    263624.46   -25664.905    1978.4972   -27643.403     50.44679   0.81656126 
   11800    244.84579   -272.89555    263624.46   -25694.448    1981.5123    -27675.96    51.231074   0.81656126 
   11900    236.32926   -329.22919    263624.46   -25720.257    1912.5889   -27632.846    51.463425   0.81656126 
   12000     239.2964   -209.88482    263624.46   -25698.939    1936.6016    -27635.54    51.339372   0.81656126 
   12100    238.32608   -326.93656    263624.46    -25749.06    1928.7489   -27677.809    51.335225   0.81656126 
   12200     243.7266   -351.59757    263624.46   -25731.922    1972.4549   -27704.376    51.440105   0.81656126 
   12300    240.38757   -321.72022    263624.46    -25814.87    1945.4324   -27760.303    52.296128   0.81656126 
   12400    239.46264   -212.24909    263624.46   -25793.128     1937.947   -27731.075    53.137153   0.81656126 
   12500    240.89318   -171.86928    263624.46   -25754.536    1949.5242    -27704.06     53.34072   0.81656126 
   12600    242.36379   -65.509318    263624.46   -25717.871    1961.4258   -27679.296      53.1633   0.81656126 
   12700    243.62775   -163.76046    263624.46   -25722.621    1971.6548   -27694.276    53.249258   0.81656126 
   12800    244.01758    -361.4601    263624.46   -25733.867    1974.8097   -27708.676    53.512315   0.81656126 
   12900    232.10918   -396.50348    263624.46   -25771.269    1878.4362   -27649.705    53.919808   0.81656126 
   13000    237.51836   -261.45282    263624.46   -25772.286    1922.2122   -27694.498    54.218257   0.81656126 
   13100    239.22743   -133.94149    263624.46   -25767.974    1936.0435   -27704.018     54.57082   0.81656126 
   13200    242.13361   -88.013378    263624.46   -25813.083     1959.563   -27772.646    54.690682   0.81656126 
   13300    239.19734   -326.08952    263624.46   -25807.713       1935.8   -27743.513    55.007162   0.81656126 
   13400    230.43094   -291.17294    263624.46   -25866.724    1864.8544   -27731.579    55.020879   0.81656126 
   13500    237.88433   -344.34867    263624.46   -25793.646     1925.174    -27718.82    55.306913   0.81656126 
   13600    231.24932   -285.94275    263624.46   -25816.013    1871.4774    -27687.49    55.815556   0.81656126 
   13700    233.45077   -299.92842    263624.46   -25807.516    1889.2936   -27696.809    56.372917   0.81656126 
   13800    238.02844   -288.12539    263624.46   -25750.566    1926.3402   -27676.906     56.83378   0.81656126 
   13900    237.38279   -244.38934    263624.46   -25762.298     1921.115   -27683.413    57.186104   0.81656126 
   14000    245.51922   -244.89014    263624.46   -25692.494    1986.9623   -27679.457    57.198535   0.81656126 
   14100    244.27389   -247.23705    263624.46   -25765.869     1976.884   -27742.753    57.485965   0.81656126 
   14200    238.32914   -134.85299    263624.46   -25774.774    1928.7737   -27703.548    57.564352   0.81656126 
   14300    237.01583   -286.48713    263624.46   -25753.463    1918.1453   -27671.608    57.981395   0.81656126 
   14400     240.6515    -378.4538    263624.46   -25783.819    1947.5684   -27731.387    58.290588   0.81656126 
   14500      231.359   -261.53943    263624.46   -25805.952    1872.3651   -27678.317    58.490106   0.81656126 
   14600    237.18178   -185.96784    263624.46   -25789.864    1919.4883   -27709.352    58.991513   0.81656126 
   14700    239.66377    -93.83646    263624.46   -25797.857    1939.5748   -27737.432    59.046492   0.81656126 
   14800      237.916   -248.13718    263624.46   -25760.273    1925.4302   -27685.703    59.396301   0.81656126 
   14900    238.02818   -212.84985    263624.46   -25761.296    1926.3381   -27687.634    59.866094   0.81656126 
   15000    232.79011   -272.78642    263624.46   -25771.318     1883.947   -27655.265    60.211095   0.81656126 
   15100    235.29881     -321.096    263624.46   -25773.626    1904.2496   -27677.875    60.908081   0.81656126 
   15200    244.60734   -366.18685    263624.46   -25749.736    1979.5826   -27729.318    61.404878   0.81656126 
   15300    238.02871   -236.26438    263624.46   -25766.561    1926.3424   -27692.903     62.22964   0.81656126 
   15400    239.23001   -171.39865    263624.46   -25792.119    1936.0643   -27728.183     62.72406   0.81656126 
   15500    241.97065   -119.47682    263624.46    -25780.49    1958.2441   -27738.734    63.565006   0.81656126 
   15600    244.09126    -200.2789    263624.46   -25693.825     1975.406   -27669.231     64.27909   0.81656126 
   15700     244.7947   -319.47055    263624.46   -25673.026    1981.0988   -27654.124    64.809021   0.81656126 
   15800    238.22602   -288.20801    263624.46   -25691.044    1927.9392   -27618.983    65.244558   0.81656126 
   15900    239.14926   -441.45347    263624.46   -25690.705    1935.4109   -27626.116     65.46475   0.81656126 
   16000    245.64042   -269.30767    263624.46   -25713.828    1987.9431   -27701.771    65.755136   0.81656126 
   16100    235.15932   -200.52346    263624.46   -25735.961    1903.1207   -27639.082    66.421216   0.81656126 
   16200    234.06839   -218.09877    263624.46   -25711.075    1894.2919   -27605.367    66.584938   0.81656126 
   16300    242.80594   -304.68665    263624.46   -25723.947     1965.004   -27688.951     66.84527   0.81656126 
   16400     239.1536   -233.37993    263624.46   -25759.539     1935.446   -27694.985    67.322286   0.81656126 
   16500    244.20922   -322.16008    263624.46    -25693.07    1976.3607   -27669.431     67.38805   0.81656126 
   16600    243.19565   -380.46121    263624.46   -25690.346    1968.1579   -27658.504    68.129706   0.81656126 
   16700    246.87602   -391.27843    263624.46   -25702.013    1997.9428   -27699.956    68.712154   0.81656126 
   16800     236.3198   -263.07459    263624.46   -25719.388    1912.5123     -27631.9    69.117059   0.81656126 
   16900    238.03697   -373.27186    263624.46   -25768.115    1926.4092   -27694.524    69.501395   0.81656126 
   17000    238.39322   -195.38221    263624.46   -25796.426    1929.2923   -27725.718    69.633612   0.81656126 
   17100    236.35568   -240.74271    263624.46   -25756.315    1912.8027   -27669.118    70.056928   0.81656126 
   17200    241.12864   -194.99019    263624.46   -25788.073    1951.4298   -27739.502    70.442904   0.81656126 
   17300    241.38453   -265.82876    263624.46   -25812.206    1953.5007   -27765.706    70.920779   0.81656126 
   17400    231.29065   -250.97681    263624.46   -25874.969    1871.8119   -27746.781     71.28461   0.81656126 
   17500    239.57476   -221.47535    263624.46       -25830    1938.8544   -27768.855    71.717011   0.81656126 
   17600    237.87581   -256.98752    263624.46   -25817.532     1925.105   -27742.637    72.303124   0.81656126 
   17700    237.89789   -334.92578    263624.46   -25822.767    1925.2837   -27748.051    72.567967   0.81656126 
   17800    239.68907   -325.28715    263624.46   -25835.243    1939.7795   -27775.023    72.849894   0.81656126 
   17900    242.66983   -234.20931    263624.46   -25760.663    1963.9025   -27724.566    74.011344   0.81656126 
   18000    242.20044   -302.78912    263624.46    -25783.34    1960.1038   -27743.444    74.641306   0.81656126 
   18100    240.10886    -199.3747    263624.46    -25718.71    1943.1768   -27661.887    75.166405   0.81656126 
   18200    247.33808   -251.74718    263624.46   -25787.211    2001.6821   -27788.893    74.820077   0.81656126 
   18300    248.39714   -155.22966    263624.46   -25755.768    2010.2531   -27766.021    75.009629   0.81656126 
   18400    242.86768   -342.18296    263624.46   -25792.592    1965.5037   -27758.096    74.961291   0.81656126 
   18500    240.60714   -329.91463    263624.46   -25819.266    1947.2093   -27766.476    75.422429   0.81656126 
   18600    244.11717   -189.92867    263624.46   -25784.054    1975.6156   -27759.669    75.807545   0.81656126 
   18700    237.52259   -179.12635    263624.46   -25774.489    1922.2464   -27696.735    76.667605   0.81656126 
   18800    239.68918   -172.22848    263624.46    -25828.55    1939.7804   -27768.331    76.921524   0.81656126 
   18900    245.84487   -372.47825    263624.46   -25806.267    1989.5978   -27795.865    77.266015   0.81656126 
   19000    238.66428   -426.66822    263624.46   -25756.439     1931.486   -27687.925    77.883991   0.81656126 
   19100    238.14551   -285.36895    263624.46   -25747.788    1927.2876   -27675.075    78.327931   0.81656126 
   19200    239.05265   -246.04867    263624.46   -25774.925     1934.629   -27709.554    78.656267   0.81656126 
   19300    244.55385   -150.15094    263624.46    -25711.79    1979.1497   -27690.939    79.153403   0.81656126 
   19400    249.48224   -196.94353    263624.46   -25725.589    2019.0347   -27744.623    79.499221   0.81656126 
   19500    240.34645   -231.43406    263624.46   -25732.438    1945.0996   -27677.538    79.600802   0.81656126 
   19600    243.04457   -407.88244    263624.46   -25733.571    1966.9352   -27700.506     80.22863   0.81656126 
   19700    243.96896   -318.61345    263624.46   -25723.976    1974.4162   -27698.392    80.769734   0.81656126 
   19800    241.97111   -204.50269    263624.46   -25749.408    1958.2478   -27707.656     81.10958   0.81656126 
   19900    243.42795   -170.94824    263624.46   -25731.991    1970.0379   -27702.029    81.297943   0.81656126 
   20000    243.60954   -255.20986    263624.46   -25758.481    1971.5075   -27729.988    81.545613   0.81656126 
   20100    238.63986   -150.06036    263624.46   -25821.017    1931.2884   -27752.305    82.267778   0.81656126 
   20200    239.50591   -241.82515    263624.46   -25808.377    1938.2972   -27746.674    82.310855   0.81656126 
   20300    247.42817   -301.42289    263624.46   -25748.326    2002.4112   -27750.737    82.835476   0.81656126 
   20400    240.68687   -271.41294    263624.46   -25725.819    1947.8546   -27673.673    83.383457   0.81656126 
   20500    240.26787   -279.71331    263624.46   -25811.895    1944.4636   -27756.358    83.939985   0.81656126 
   20600    240.08925   -321.89844    263624.46    -25820.58    1943.0181   -27763.599    83.972589   0.81656126 
   20700    239.11241   -327.81042    263624.46   -25812.772    1935.1127   -27747.885    84.680386   0.81656126 
   20800    243.78832   -138.00315    263624.46   -25767.479    1972.9543   -27740.433    85.360546   0.81656126 
   20900    240.73975   -295.78524    263624.46   -25740.327    1948.2825    -27688.61    85.594912   0.81656126 
   21000    240.17627   -439.32535    263624.46   -25763.377    1943.7223   -27707.099    85.651489   0.81656126 
   21100    236.61666   -283.37708    263624.46   -25719.796    1914.9148   -27634.711    85.672433   0.81656126 
   21200    238.97299   -245.49583    263624.46    -25714.54    1933.9844   -27648.525    85.591388   0.81656126 
   21300    242.80303   -377.77733    263624.46   -25681.825    1964.9805   -27646.805    86.005602   0.81656126 
   21400    243.89638   -211.36981    263624.46   -25714.714    1973.8288   -27688.543    85.977599   0.81656126 
   21500     239.5844    -286.1476    263624.46   -25688.628    1938.9324   -27627.561    86.214057   0.81656126 
   21600    245.53704   -411.03026    263624.46   -25609.669    1987.1066   -27596.776    87.373489   0.81656126 
   21700    239.12533    -265.8485    263624.46   -25681.113    1935.2172   -27616.331    88.151027   0.81656126 
   21800    241.95469   -382.87261    263624.46   -25706.415    1958.1149    -27664.53    88.715498   0.81656126 
   21900    242.47791   -245.21899    263624.46   -25733.254    1962.3493   -27695.603     89.57541   0.81656126 
   22000    235.05157   -61.507726    263624.46   -25775.484    1902.2487   -27677.732    89.716647   0.81656126 
   22100    245.34085   -315.37895    263624.46    -25743.28    1985.5188   -27728.799    89.989758   0.81656126 
   22200    233.91353   -352.74718    263624.46   -25819.879    1893.0386   -27712.917    90.176658   0.81656126 
   22300    237.74818    -230.8346    263624.46   -25772.194    1924.0721   -27696.266    90.754833   0.81656126 
   22400    241.61461   -289.90662    263624.46   -25714.444    1955.3627   -27669.807    91.270593   0.81656126 
   22500    243.10205   -277.49597    263624.46   -25738.355    1967.4004   -27705.755    91.740138   0.81656126 
   22600    238.69811   -201.89225    263624.46   -25744.311    1931.7598   -27676.071    91.887587   0.81656126 
   22700    237.21301   -251.87214    263624.46   -25785.832     1919.741   -27705.573    91.890383   0.81656126 
   22800    241.16887   -383.07399    263624.46   -25754.687    1951.7553   -27706.443    91.866554   0.81656126 
   22900    233.24091   -232.42904    263624.46   -25777.729    1887.5952   -27665.325     92.17568   0.81656126 
   23000    244.81171   -300.84809    263624.46    -25785.04    1981.2365   -27766.276    92.887392   0.81656126 
   23100    246.08425   -173.87372    263624.46   -25765.171    1991.5351   -27756.706    92.997343   0.81656126 
   23200    236.15691   -109.55355    263624.46   -25757.258    1911.1941   -27668.452     93.05853   0.81656126 
   23300    236.58378   -205.79377    263624.46   -25764.641    1914.6487    -27679.29    92.627202   0.81656126 
   23400    240.32896   -327.33798    263624.46   -25758.726    1944.9581   -27703.684    92.943449   0.81656126 
   23500    246.48798   -313.87625    263624.46    -25743.68    1994.8024   -27738.482    93.539612   0.81656126 
   23600    242.65574   -255.28897    263624.46   -25707.212    1963.7885       -27671    94.522543   0.81656126 
   23700    239.40244   -306.93272    263624.46   -25728.597    1937.4598   -27666.057    95.321474   0.81656126 
   23800    240.22474   -357.60459    263624.46   -25713.042    1944.1146   -27657.157    95.844576   0.81656126 
   23900    237.86836   -220.02027    263624.46   -25792.439    1925.0447   -27717.484    95.969051   0.81656126 
   24000    238.78203   -307.95221    263624.46   -25781.663    1932.4389   -27714.102     97.26596   0.81656126 
   24100       243.49   -123.63978    263624.46   -25768.094      1970.54   -27738.635    97.671372   0.81656126 
   24200    243.24686   -209.39696    263624.46   -25786.555    1968.5724   -27755.127    97.792646   0.81656126 
   24300    240.58739   -325.14117    263624.46   -25830.688    1947.0495   -27777.737     97.23236   0.81656126 
   24400    236.54665   -394.50616    263624.46   -25846.089    1914.3482   -27760.437    97.491265   0.81656126 
   24500    238.21462   -198.49655    263624.46   -25854.723     1927.847    -27782.57     97.15037   0.81656126 
   24600    237.67097   -279.61197    263624.46   -25877.438    1923.4473   -27800.885     96.98128   0.81656126 
   24700    237.91111   -204.66031    263624.46   -25888.356    1925.3907   -27813.747    96.969384   0.81656126 
   24800    234.36033   -127.18747    263624.46   -25875.008    1896.6545   -27771.662    97.026013   0.81656126 
   24900    239.25073   -286.63303    263624.46   -25892.292    1936.2321   -27828.524    97.218008   0.81656126 
   25000    236.71709    -273.0315    263624.46    -25887.78    1915.7276   -27803.508    97.711345   0.81656126 
   25100    239.94024   -269.35234    263624.46    -25915.33    1941.8122   -27857.142     97.85474   0.81656126 
   25200    239.94951   -323.73513    263624.46   -25992.049    1941.8872   -27933.936    98.098746   0.81656126 
   25300    232.08498   -81.378144    263624.46    -25969.27    1878.2403   -27847.511    97.931807   0.81656126 
   25400    233.36693    -235.4742    263624.46   -25934.044    1888.6151   -27822.659    98.253244   0.81656126 
   25500    241.31534   -193.79949    263624.46   -25889.849    1952.9408   -27842.789    98.051735   0.81656126 
   25600    236.42532   -356.96864    263624.46   -25787.567    1913.3663   -27700.933    98.055427   0.81656126 
   25700    240.82404   -337.48652    263624.46   -25846.122    1948.9647   -27795.087    98.239817   0.81656126 
   25800    251.04977   -324.97698    263624.46   -25791.299    2031.7205   -27823.019    98.344992   0.81656126 
   25900    246.13923   -335.12827    263624.46   -25797.523      1991.98   -27789.503     98.54199   0.81656126 
   26000     239.2929   -139.02272    263624.46   -25828.728    1936.5733   -27765.301     98.47091   0.81656126 
   26100    244.20981   -162.58852    263624.46    -25839.72    1976.3654   -27816.085    98.764668   0.81656126 
   26200    238.39518   -188.65838    263624.46   -25856.818    1929.3082   -27786.127     98.42025   0.81656126 
   26300    240.07832   -348.12533    263624.46   -25889.061    1942.9297    -27831.99    98.775302   0.81656126 
   26400     239.9511   -261.85409    263624.46   -25903.882    1941.9001   -27845.782    98.859138   0.81656126 
   26500    238.43117   -276.02425    263624.46   -25825.013    1929.5995   -27754.613    99.048139   0.81656126 
   26600     239.5002   -314.54542    263624.46   -25799.915     1938.251   -27738.166    99.792433   0.81656126 
   26700    238.78859   -283.87989    263624.46   -25773.392     1932.492   -27705.884    100.38522   0.81656126 
   26800    239.02922   -337.59485    263624.46    -25810.71    1934.4394   -27745.149    100.71368   0.81656126 
   26900    244.45635   -230.03666    263624.46   -25779.816    1978.3606   -27758.176     100.8005   0.81656126 
   27000    241.98497   -294.59214    263624.46   -25796.811      1958.36   -27755.171    100.97921   0.81656126 
   27100    243.69026   -383.72985    263624.46    -25766.82    1972.1607    -27738.98    101.28949   0.81656126 
   27200    242.14895   -362.30784    263624.46   -25777.021    1959.6871   -27736.708    101.90179   0.81656126 
   27300    245.15171   -429.80538    263624.46   -25701.883    1983.9881   -27685.871    102.37273   0.81656126 
   27400    238.95841   -313.75028    263624.46   -25722.449    1933.8664   -27656.316    102.70536   0.81656126 
   27500    236.70813   -252.82976    263624.46   -25778.446    1915.6551   -27694.101    103.19559   0.81656126 
   27600    236.21764   -251.78743    263624.46   -25830.573    1911.6855   -27742.258     103.3314   0.81656126 
   27700    240.19505   -267.16842    263624.46   -25774.596    1943.8744    -27718.47    103.50743   0.81656126 
   27800    244.90633   -329.39365    263624.46   -25715.148    1982.0022    -27697.15    103.65377   0.81656126 
   27900    239.73776   -386.57404    263624.46   -25772.434    1940.1736   -27712.608    103.89141   0.81656126 
   28000    236.89579   -429.83382    263624.46   -25816.567    1917.1738   -27733.741    104.50912   0.81656126 
   28100    240.76691   -202.21276    263624.46   -25818.149    1948.5023   -27766.651    104.76101   0.81656126 
   28200    237.81481   -254.94761    263624.46   -25811.126    1924.6113   -27735.737    105.19067   0.81656126 
   28300    233.99019   -166.16802    263624.46   -25803.994    1893.6591   -27697.653    105.67955   0.81656126 
   28400    241.50184   -424.37144    263624.46   -25784.588    1954.4501   -27739.038    106.19638   0.81656126 
   28500    239.07746   -374.30929    263624.46   -25787.227    1934.8298   -27722.057    106.00194   0.81656126 
   28600    240.22578   -221.10286    263624.46   -25811.759     1944.123   -27755.882    106.84573   0.81656126 
   28700    240.75291   -138.55962    263624.46   -25803.079    1948.3891   -27751.468     106.9715   0.81656126 
   28800    243.61046    -102.3093    263624.46   -25812.299    1971.5149   -27783.813    107.04239   0.81656126 
   28900    238.20676   -244.29437    263624.46   -25781.222    1927.7833   -27709.005    107.22114   0.81656126 
   29000    241.52239   -283.84187    263624.46   -25758.847    1954.6164   -27713.463    107.28408   0.81656126 
   29100    242.25308    -329.8587    263624.46   -25735.065    1960.5298   -27695.595    107.75969   0.81656126 
   29200    235.95522   -270.21914    263624.46   -25713.586    1909.5618   -27623.148    107.96441   0.81656126 
   29300    240.46855     -215.872    263624.46    -25708.97    1946.0877   -27655.058    108.29535   0.81656126 
   29400    246.76403   -228.16947    263624.46   -25737.285    1997.0364   -27734.321    108.56726   0.81656126 
   29500    239.55331   -412.56168    263624.46   -25714.688    1938.6808   -27653.369    108.22444   0.81656126 
   29600    240.18443    -253.2939    263624.46   -25710.301    1943.7884   -27654.089    108.22038   0.81656126 
   29700    241.71907   -298.63385    263624.46   -25741.357    1956.2081   -27697.565    108.63859   0.81656126 
   29800    236.45326   -207.46588    263624.46   -25815.481    1913.5924   -27729.073    108.61614   0.81656126 
   29900    239.84872   -244.44639    263624.46   -25791.639    1941.0716    -27732.71    109.04834   0.81656126 
   30000    233.27916   -161.36383    263624.46   -25870.018    1887.9048   -27757.923     109.1361   0.81656126 
   30100    235.70119   -282.13277    263624.46   -25832.389     1907.506   -27739.895    109.53178   0.81656126 
   30200    227.23917   -325.41477    263624.46   -25831.514    1839.0237   -27670.538    110.22913   0.81656126 
   30300    233.32193   -286.33436    263624.46   -25818.584    1888.2509   -27706.835    110.77714   0.81656126 
   30400    240.89598   -63.283642    263624.46   -25769.446    1949.5469   -27718.993    111.01866   0.81656126 
   30500    236.37537   -295.26408    263624.46    -25845.38     1912.962   -27758.342    111.30366   0.81656126 
   30600    237.39152   -325.65755    263624.46   -25797.258    1921.1856   -27718.444    111.96975   0.81656126 
   30700    236.73115   -246.37713    263624.46   -25814.604    1915.8414   -27730.445    111.83037   0.81656126 
   30800    233.29914    -231.0174    263624.46   -25779.565    1888.0665   -27667.631    111.70662   0.81656126 
   30900    241.34993   -308.15387    263624.46   -25734.691    1953.2207   -27687.912    112.16941   0.81656126 
   31000    241.88506   -326.06695    263624.46   -25719.725    1957.5514   -27677.277    112.68327   0.81656126 
   31100    237.40392   -258.66265    263624.46   -25716.347     1921.286   -27637.633    112.99291   0.81656126 
   31200    236.04433   -346.82657    263624.46   -25699.052     1910.283   -27609.335    113.49489   0.81656126 
   31300     242.3845   -317.49865    263624.46   -25639.132    1961.5934   -27600.725    114.14982   0.81656126 
   31400    242.98282   -41.286746    263624.46   -25689.043    1966.4355   -27655.478    114.87212   0.81656126 
   31500    238.60943    -305.1793    263624.46   -25669.918    1931.0421    -27600.96    115.41587   0.81656126 
   31600    242.96604   -218.18376    263624.46   -25713.169    1966.2997   -27679.468    115.84402   0.81656126 
   31700    236.41593   -294.55356    263624.46    -25703.86    1913.2903    -27617.15    116.31961   0.81656126 
   31800    241.97505   -270.31212    263624.46   -25679.502    1958.2797   -27637.782    116.66275   0.81656126 
   31900    240.17247   -554.31236    263624.46    -25740.61    1943.6916   -27684.301    116.57453   0.81656126 
   32000    240.28404   -212.44933    263624.46   -25753.786    1944.5946   -27698.381    116.44345   0.81656126 
   32100    237.55818   -369.50383    263624.46   -25772.365    1922.5345     -27694.9    117.43655   0.81656126 
   32200     236.7495   -237.72201    263624.46   -25847.856    1915.9899   -27763.846    118.30198   0.81656126 
   32300    237.55847   -239.45785    263624.46   -25835.132    1922.5368   -27757.669    118.37837   0.81656126 
   32400     237.3584   -290.97829    263624.46   -25831.205    1920.9176   -27752.122    118.75541   0.81656126 
   32500    242.69661   -248.50032    263624.46   -25766.046    1964.1192   -27730.165    119.34029   0.81656126 
   32600    241.65454   -248.19466    263624.46   -25735.203    1955.6858   -27690.889    119.26849   0.81656126 
   32700    242.34012   -205.73076    263624.46   -25790.143    1961.2342   -27751.377    119.39038   0.81656126 
   32800    248.07277   -308.52603    263624.46   -25741.059     2007.628   -27748.687    119.98836   0.81656126 
   32900    242.48049   -152.10097    263624.46   -25772.566    1962.3702   -27734.936    120.55927   0.81656126 
   33000    240.52637      -199.82    263624.46   -25766.514    1946.5557    -27713.07    121.27055   0.81656126 
   33100    240.27446   -377.35717    263624.46   -25781.513     1944.517    -27726.03    121.91033   0.81656126 
   33200    237.88961   -289.11543    263624.46   -25815.128    1925.2166   -27740.344    122.21171   0.81656126 
   33300    235.63811   -209.62092    263624.46   -25756.795    1906.9955    -27663.79    122.59261   0.81656126 
   33400    241.27534   -266.09221    263624.46   -25778.967    1952.6171   -27731.584    122.78604   0.81656126 
   33500     238.4375   -212.57836    263624.46   -25798.917    1929.6506   -27728.567    123.11761   0.81656126 
   33600    236.20355   -178.66006    263624.46   -25806.403    1911.5716   -27717.975     123.3449   0.81656126 
   33700    236.82894   -322.67566    263624.46   -25793.145    1916.6327   -27709.778    123.58624   0.81656126 
   33800    244.90119   -355.20732    263624.46   -25668.231    1981.9606   -27650.192    123.86025   0.81656126 
   33900    245.30465   -380.85492    263624.46   -25643.763    1985.2258   -27628.989    124.42414   0.81656126 
   34000     237.1634   -171.90077    263624.46   -25713.635    1919.3395   -27632.975    124.78599   0.81656126 
   34100    241.00123   -246.82186    263624.46   -25706.554    1950.3987   -27656.952    125.28147   0.81656126 
   34200    236.83128   -122.70322    263624.46   -25731.282    1916.6517   -27647.933    125.80914   0.81656126 
   34300    241.33314   -285.27078    263624.46    -25763.06    1953.0848   -27716.144    126.36429   0.81656126 
   34400    234.20076   -172.22621    263624.46   -25769.667    1895.3631   -27665.031    126.79484   0.81656126 
   34500    242.12202   -392.37095    263624.46   -25683.525    1959.4691   -27642.994    127.19332   0.81656126 
   34600    245.23225   -266.23694    263624.46   -25652.154    1984.6399   -27636.794    128.16992   0.81656126 
   34700    244.05673   -240.38113    263624.46    -25672.33    1975.1265   -27647.457    128.95022   0.81656126 
   34800    241.30812   -312.21318    263624.46   -25711.241    1952.8823   -27664.124    129.09417   0.81656126 
   34900    238.64781    -138.4712    263624.46   -25732.623    1931.3527   -27663.975    128.70481   0.81656126 
   35000    238.58195   -257.64186    263624.46    -25735.03    1930.8197   -27665.849    128.86945   0.81656126 
   35100    242.40558   -281.09021    263624.46   -25724.988    1961.7639   -27686.752    128.70107   0.81656126 
   35200    238.35518   -363.03686    263624.46   -25698.684    1928.9845   -27627.669    129.78353   0.81656126 
   35300    239.73781   -238.60091    263624.46     -25720.7    1940.1739   -27660.873    129.92042   0.81656126 
   35400    239.94064   -398.85749    263624.46   -25719.589    1941.8154   -27661.404    130.27779   0.81656126 
   35500    242.61656   -315.16801    263624.46   -25729.292    1963.4714   -27692.764    130.66041   0.81656126 
   35600    246.48152   -436.26542    263624.46   -25713.629    1994.7501   -27708.379     131.1797   0.81656126 
   35700    240.56184   -442.22178    263624.46   -25697.789    1946.8427   -27644.632    131.63621   0.81656126 
   35800    248.87613   -377.64524    263624.46    -25614.29    2014.1294   -27628.419    132.08063   0.81656126 
   35900    243.58386   -89.793198    263624.46   -25661.994    1971.2996   -27633.293     132.4706   0.81656126 
   36000    242.56892   -256.71088    263624.46   -25719.081    1963.0858   -27682.167    133.12192   0.81656126 
   36100    238.33765   -100.14031    263624.46   -25743.111    1928.8426   -27671.953     133.4355   0.81656126 
   36200    235.79065   -249.38066    263624.46   -25753.401      1908.23   -27661.631     133.8745   0.81656126 
   36300    234.81488   -352.89839    263624.46   -25778.114    1900.3331   -27678.447    134.47165   0.81656126 
   36400    231.62997   -263.89443    263624.46    -25765.24     1874.558   -27639.798    134.89507   0.81656126 
   36500    239.40979   -395.60763    263624.46   -25724.447    1937.5193   -27661.967    135.59874   0.81656126 
   36600    245.84642   -272.73488    263624.46   -25732.714    1989.6103   -27722.324    135.70566   0.81656126 
   36700    240.38231   -204.18656    263624.46   -25737.133    1945.3898   -27682.523    135.98722   0.81656126 
   36800    240.18743    -319.3238    263624.46   -25791.939    1943.8127   -27735.752    136.12628   0.81656126 
   36900    241.45281   -217.01068    263624.46   -25777.468    1954.0533   -27731.521     136.2064   0.81656126 
   37000    237.57533   -321.99566    263624.46   -25764.841    1922.6733   -27687.514    136.48103   0.81656126 
   37100    236.33383   -307.36124    263624.46   -25800.584    1912.6259    -27713.21     137.4821   0.81656126 
   37200     236.0221   -155.77589    263624.46   -25821.122    1910.1031   -27731.225    138.29553   0.81656126 
   37300    239.58966   -126.15739    263624.46   -25815.626     1938.975   -27754.601    138.88492   0.81656126 
   37400    237.16222   -243.11419    263624.46   -25821.329    1919.3299   -27740.659    138.86536   0.81656126 
   37500    238.58706   -244.30842    263624.46   -25811.771     1930.861   -27742.632    139.32173   0.81656126 
   37600    236.93743   -139.74527    263624.46   -25813.091    1917.5107   -27730.602     139.8123   0.81656126 
   37700    232.48786    -298.9224    263624.46   -25879.474    1881.5008   -27760.975    140.49976   0.81656126 
   37800    229.78931   -253.89574    263624.46   -25890.856    1859.6618   -27750.517    140.59741   0.81656126 
   37900    239.24767   -254.12739    263624.46   -25822.716    1936.2073   -27758.923    141.03294   0.81656126 
   38000    238.78949   -221.01299    263624.46   -25784.841    1932.4993    -27717.34    141.56665   0.81656126 
   38100    238.57053    21.650704    263624.46     -25779.3    1930.7273   -27710.027    142.25992   0.81656126 
   38200    239.08403   -74.067861    263624.46   -25762.944     1934.883   -27697.827    142.98751   0.81656126 
   38300     242.7992   -320.93723    263624.46   -25747.423    1964.9495   -27712.372    143.23859   0.81656126 
   38400    240.13377   -536.93719    263624.46   -25694.328    1943.3784   -27637.707    143.68054   0.81656126 
   38500    238.47956   -357.19203    263624.46   -25709.724     1929.991   -27639.715    144.01483   0.81656126 
   38600    243.77394   -413.87857    263624.46   -25713.245    1972.8379   -27686.083    144.23996   0.81656126 
   38700    244.01032   -180.46718    263624.46   -25681.933    1974.7509   -27656.684    145.18874   0.81656126 
   38800    234.00067   -229.83158    263624.46   -25784.157    1893.7438   -27677.901    145.84477   0.81656126 
   38900    243.89003   -366.29677    263624.46   -25681.291    1973.7774   -27655.068    145.97305   0.81656126 
   39000    239.07997   -296.10263    263624.46   -25696.203    1934.8502   -27631.053    146.01715   0.81656126 
   39100    234.47118    -334.4334    263624.46   -25723.889    1897.5517    -27621.44    146.10652   0.81656126 
   39200    239.80831   -226.81992    263624.46   -25786.891    1940.7445   -27727.636     145.9504   0.81656126 
   39300    233.47809    -307.5576    263624.46   -25837.144    1889.5147   -27726.659    146.37245   0.81656126 
   39400      242.195   -170.33496    263624.46   -25748.707    1960.0597   -27708.767    146.94294   0.81656126 
   39500    248.15268   -294.22743    263624.46   -25775.104    2008.2746   -27783.379    146.59534   0.81656126 
   39600    241.41872   -294.62923    263624.46   -25746.753    1953.7774   -27700.531    146.88302   0.81656126 
   39700    242.32333   -263.37462    263624.46   -25776.197    1961.0983   -27737.295    146.82722   0.81656126 
   39800    235.45905   -305.86871    263624.46   -25789.688    1905.5464   -27695.234     147.3448   0.81656126 
   39900    241.86101   -193.61546    263624.46   -25765.971    1957.3568   -27723.327    147.21942   0.81656126 
   40000    241.74408   -263.32651    263624.46   -25786.085    1956.4105   -27742.495    147.28022   0.81656126 
   40100    240.37004     -257.296    263624.46   -25775.316    1945.2905   -27720.607    147.20199   0.81656126 
   40200    239.58568   -335.02197    263624.46   -25754.175    1938.9428   -27693.118    147.40609   0.81656126 
   40300    239.45103   -206.72393    263624.46   -25803.395    1937.8531   -27741.249    147.77629   0.81656126 
   40400    239.00917   -204.11801    263624.46   -25803.319    1934.2771   -27737.596    148.49878   0.81656126 
   40500    237.85948   -187.11778    263624.46   -25764.346    1924.9728   -27689.319    148.66809   0.81656126 
   40600    241.81794   -70.278456    263624.46   -25755.425    1957.0082   -27712.433    149.05779   0.81656126 
   40700    233.64231   -157.73696    263624.46   -25805.449    1890.8437   -27696.292    149.59604   0.81656126 
   40800    236.69567    -448.1641    263624.46    -25785.14    1915.5542   -27700.694    150.17475   0.81656126 
   40900    235.41394   -231.82021    263624.46   -25808.067    1905.1813   -27713.248    150.87413   0.81656126 
   41000    232.47351   -220.17506    263624.46   -25809.043    1881.3847   -27690.427    151.50352   0.81656126 
   41100    241.26568   -275.24975    263624.46    -25805.37    1952.5388   -27757.908    151.52969   0.81656126 
   41200    243.55657   -256.11706    263624.46   -25738.601    1971.0788   -27709.679    151.64312   0.81656126 
   41300    238.84648   -252.39896    263624.46   -25778.376    1932.9605   -27711.337    152.42669   0.81656126 
   41400     242.4628   -259.16418    263624.46    -25791.36     1962.227   -27753.587    152.37939   0.81656126 
   41500    240.68785   -331.38243    263624.46    -25763.78    1947.8625   -27711.642    152.62379   0.81656126 
   41600    241.35168    -387.1791    263624.46   -25763.975    1953.2348    -27717.21    152.92284   0.81656126 
   41700    239.08482   -179.40098    263624.46    -25838.82    1934.8894   -27773.709    153.45714   0.81656126 
   41800    240.75981   -247.45323    263624.46   -25790.863    1948.4449   -27739.308    154.09443   0.81656126 
   41900     239.2232   -301.29592    263624.46   -25855.122    1936.0093   -27791.131    154.69083   0.81656126 
   42000    232.48368   -229.18493    263624.46   -25840.233     1881.467     -27721.7    154.91633   0.81656126 
   42100    236.16267   -174.37333    263624.46   -25881.827    1911.2407   -27793.067    155.32101   0.81656126 
   42200    228.50514   -91.488801    263624.46   -25855.933    1849.2691   -27705.202    155.23733   0.81656126 
   42300    238.54936   -326.59823    263624.46   -25831.927     1930.556   -27762.483    155.59499   0.81656126 
   42400    232.01795   -274.49936    263624.46   -25836.101    1877.6979   -27713.799    155.54846   0.81656126 
   42500    236.85398   -227.88043    263624.46   -25840.118    1916.8354   -27756.953    155.98044   0.81656126 
   42600    243.96133   -312.59491    263624.46   -25830.426    1974.3544    -27804.78    156.07786   0.81656126 
   42700    235.00388   -310.24778    263624.46   -25843.859    1901.8627   -27745.722    156.67937   0.81656126 
   42800    237.36146   -294.14571    263624.46   -25816.749    1920.9424   -27737.691    157.08227   0.81656126 
   42900     239.5711   -318.18846    263624.46   -25832.697    1938.8248   -27771.522    157.86423   0.81656126 
   43000    235.74255   -374.73696    263624.46   -25830.289    1907.8407   -27738.129    158.18774   0.81656126 
   43100    242.30113   -233.73515    263624.46   -25799.852    1960.9186   -27760.771    158.90336   0.81656126 
   43200    244.56061   -116.21929    263624.46   -25830.515    1979.2044    -27809.72    159.35854   0.81656126 
   43300    235.32046    -353.1389    263624.46    -25903.32    1904.4248   -27807.744    159.58642   0.81656126 
   43400    240.16467   -307.79326    263624.46   -25854.097    1943.6285   -27797.725    160.46951   0.81656126 
   43500    245.66226    -226.4778    263624.46   -25819.675    1988.1199   -27807.795    160.18384   0.81656126 
   43600    243.75263   -213.39389    263624.46   -25848.416    1972.6654   -27821.081    160.72644   0.81656126 
   43700    236.81874    -233.4951    263624.46   -25914.763    1916.5502   -27831.313    161.15689   0.81656126 
   43800     229.3867   -249.18941    263624.46   -25908.673    1856.4035   -27765.077    161.82496   0.81656126 
   43900    239.01299   -239.73423    263624.46   -25868.603    1934.3081   -27802.911    162.51617   0.81656126 
   44000    236.68885    -302.4037    263624.46   -25933.122     1915.499   -27848.621    162.95257   0.81656126 
   44100    229.32099   -142.58792    263624.46   -25919.811    1855.8717   -27775.683    163.32696   0.81656126 
   44200    242.04308   -252.24685    263624.46   -25879.902    1958.8303   -27838.732    163.96436   0.81656126 
   44300    232.68705   -142.91838    263624.46   -25907.701    1883.1129   -27790.814    164.11241   0.81656126 
   44400    237.95805   -254.44967    263624.46   -25895.928    1925.7705   -27821.699    164.60751   0.81656126 
   44500    236.92829   -474.92463    263624.46   -25876.035    1917.4368   -27793.472     164.6865   0.81656126 
   44600    241.47848    -296.5696    263624.46   -25908.575     1954.261   -27862.836    164.80471   0.81656126 
   44700    238.82273    -312.6311    263624.46   -25913.324    1932.7683   -27846.092    165.04463   0.81656126 
   44800    235.44551   -218.29415    263624.46   -25885.999    1905.4368   -27791.436    165.64054   0.81656126 
   44900    235.37734    -186.0946    263624.46   -25880.977    1904.8851   -27785.862    166.30636   0.81656126 
   45000    240.44736   -218.10843    263624.46   -25882.779    1945.9163   -27828.695    166.75592   0.81656126 
   45100    241.20573   -284.91981    263624.46   -25830.052    1952.0537   -27782.106     167.2023   0.81656126 
   45200    238.54254    -418.1989    263624.46   -25848.671    1930.5008   -27779.172    167.39345   0.81656126 
   45300    238.95853   -286.21731    263624.46   -25851.013    1933.8673    -27784.88    167.98704   0.81656126 
   45400    238.80196   -233.00737    263624.46   -25867.503    1932.6002   -27800.103    168.30285   0.81656126 
   45500    238.00282   -213.14403    263624.46   -25846.678    1926.1329   -27772.811     168.9202   0.81656126 
   45600    240.56551   -333.35891    263624.46   -25811.272    1946.8725   -27758.145    169.58077   0.81656126 
   45700    238.33562   -253.03607    263624.46   -25810.698    1928.8261   -27739.524    169.68201   0.81656126 
   45800    243.54073   -269.93855    263624.46   -25809.938    1970.9506   -27780.889    170.05751   0.81656126 
   45900    238.39989   -239.54897    263624.46   -25799.023    1929.3463   -27728.369    170.41345   0.81656126 
   46000    235.03042   -198.61206    263624.46   -25783.187    1902.0775   -27685.265    170.83549   0.81656126 
   46100    244.40356    -253.7424    263624.46     -25723.6    1977.9334   -27701.533     171.1965   0.81656126 
   46200    242.95632   -352.50281    263624.46   -25757.381    1966.2211   -27723.602    171.62244   0.81656126 
   46300    241.49769   -273.34858    263624.46   -25736.991    1954.4165   -27691.408    171.91796   0.81656126 
   46400    240.35161   -266.26708    263624.46   -25791.532    1945.1413   -27736.674    172.29235   0.81656126 
   46500    236.88508   -239.42295    263624.46    -25747.64    1917.0871   -27664.727     172.5514   0.81656126 
   46600    246.82878   -341.23156    263624.46   -25798.905    1997.5604   -27796.465    173.21433   0.81656126 
   46700    241.76517   -388.73711    263624.46     -25745.9    1956.5812   -27702.481    174.27936   0.81656126 
   46800    244.44454   -196.51029    263624.46   -25771.691    1978.2651   -27749.956    174.72644   0.81656126 
   46900    244.66093   -95.480287    263624.46   -25784.434    1980.0163    -27764.45    174.97616   0.81656126 
   47000    237.16643   -210.64651    263624.46   -25814.046     1919.364    -27733.41     175.2151   0.81656126 
   47100    239.97049   -400.05694    263624.46   -25788.091     1942.057   -27730.148    175.42437   0.81656126 
   47200     240.0387   -373.03474    263624.46   -25833.708     1942.609   -27776.317    175.31043   0.81656126 
   47300    240.71034   -178.91664    263624.46   -25813.966    1948.0445   -27762.011    176.00175   0.81656126 
   47400    238.71292   -282.93993    263624.46   -25821.777    1931.8796   -27753.657    176.19706   0.81656126 
   47500    235.72053   -227.70052    263624.46   -25845.736    1907.6625   -27753.399    176.96058   0.81656126 
   47600    240.07809   -262.95486    263624.46   -25834.861    1942.9278   -27777.788     176.9645   0.81656126 
   47700    234.70166   -294.77974    263624.46   -25820.122    1899.4169   -27719.539    177.76412   0.81656126 
   47800    237.30894   -265.69437    263624.46    -25829.19    1920.5173   -27749.707    178.17299   0.81656126 
   47900    240.97539   -348.69688    263624.46   -25847.972    1950.1896   -27798.161    178.64791   0.81656126 
   48000     242.7557   -168.42957    263624.46   -25850.912    1964.5974   -27815.509    179.08161   0.81656126 
   48100    236.64871   -186.34952    263624.46   -25888.541    1915.1742   -27803.715     178.9582   0.81656126 
   48200     236.6953   -372.24889    263624.46   -25856.518    1915.5512   -27772.069     179.0502   0.81656126 
   48300    238.57794   -207.66893    263624.46   -25863.376    1930.7872   -27794.163    178.94611   0.81656126 
   48400    234.36301   -335.02341    263624.46    -25835.71    1896.6762   -27732.386    178.83671   0.81656126 
   48500     228.1579   -344.84932    263624.46   -25872.967    1846.4589   -27719.426    179.01479   0.81656126 
   48600    236.40275   -285.16961    263624.46   -25853.372    1913.1836   -27766.555    179.12494   0.81656126 
   48700    233.42978   -252.02934    263624.46   -25779.146    1889.1237    -27668.27     179.5434   0.81656126 
   48800     233.9092   -209.98612    263624.46    -25788.79    1893.0036   -27681.794    179.88148   0.81656126 
   48900    237.91332   -276.65587    263624.46   -25762.991    1925.4085   -27688.399    180.73044   0.81656126 
   49000    244.46604   -275.21373    263624.46   -25811.397     1978.439   -27789.836    181.01263   0.81656126 
   49100    243.82579   -275.83308    263624.46   -25766.025    1973.2575   -27739.283    181.41502   0.81656126 
   49200    238.72789   -290.93608    263624.46   -25778.209    1932.0008   -27710.209    182.73197   0.81656126 
   49300    241.64387   -262.65364    263624.46   -25802.275    1955.5995   -27757.874    182.72288   0.81656126 
   49400    237.87468   -257.42396    263624.46   -25862.562    1925.0958   -27787.658     183.1081   0.81656126 
   49500    236.98011    -289.1256    263624.46    -25775.11    1917.8561   -27692.966    183.20769   0.81656126 
   49600     235.7664   -216.23878    263624.46   -25835.754    1908.0337   -27743.787    183.92336   0.81656126 
   49700    231.63717    -258.4958    263624.46   -25845.129    1874.6163   -27719.745     184.0034   0.81656126 
   49800     234.7984   -387.51699    263624.46   -25843.246    1900.1998   -27743.446    184.22116   0.81656126 
   49900    240.25906   -307.07051    263624.46    -25822.88    1944.3924   -27767.272    184.75997   0.81656126 
   50000    239.95461   -384.87718    263624.46   -25860.594    1941.9285   -27802.523    184.59403   0.81656126 
Loop time of 191.297 on 12 procs for 50000 steps with 9436 atoms

Performance: 112.914 ns/day, 0.213 hours/ns, 261.374 timesteps/s
98.0% CPU use with 12 MPI tasks x no OpenMP threads

MPI task timing breakdown:
Section |  min time  |  avg time  |  max time  |%varavg| %total
---------------------------------------------------------------
Pair    | 0.016974   | 66.452     | 156.72     | 674.8 | 34.74
Neigh   | 0.070886   | 6.1616     | 13.357     | 190.0 |  3.22
Comm    | 11.061     | 85.048     | 156.35     | 548.8 | 44.46
Output  | 2.159      | 2.1734     | 2.2152     |   0.9 |  1.14
Modify  | 5.9655     | 29.342     | 140.61     | 900.0 | 15.34
Other   |            | 2.12       |            |       |  1.11

Nlocal:        786.333 ave        1576 max           0 min
Histogram: 4 0 0 0 2 0 1 3 0 2
Nghost:        1943.67 ave        2627 max        1197 min
Histogram: 2 0 2 1 1 2 0 0 1 3
Neighs:        0.00000 ave           0 max           0 min
Histogram: 12 0 0 0 0 0 0 0 0 0
FullNghs:      76906.7 ave      164893 max           0 min
Histogram: 4 0 2 0 0 0 0 3 1 2

Total # of neighbors = 922880
Ave neighs/atom = 97.804154
Neighbor list builds = 2946
Dangerous builds = 0

# Create data file for import to other simulations
#
write_data data.${NAME}
write_data data.Ibeam_240K
System init for write_data ...


Total wall time: 0:03:11
