LAMMPS data file via write_data, version 29 Oct 2020, timestep = 60683

2208 atoms
1 atom types

0.0 78.752 xlo xhi
0.0 80.13644830362759 ylo yhi
0.17853544887724837 23.821464551122684 zlo zhi

Masses

1 18.015

Atoms # atomic

87 1 23.410424733396784 19.891361658249757 12.436658419117672 0 0 0
215 1 24.30586252507443 2.9408328751471813 2.9230767239434696 0 0 0
1933 1 22.964796192778262 1.7193190860785432 0.45629639460122207 0 0 1
31 1 23.76757118637767 9.516005110616529 22.33684863177857 0 0 0
65 1 22.418746965264052 14.048298389220076 2.6180915886153553 0 0 0
381 1 22.55395458977188 13.649039457512183 23.41951133928821 0 0 -1
51 1 23.209701032294305 18.934227611715805 3.2572312963688357 0 0 0
14 1 23.96915336550837 19.01876939013266 0.19579048714224 0 1 0
69 1 22.855707204497495 1.1570568565268853 6.931187188205003 0 1 0
22 1 23.985110882717162 3.4613379861025972 5.628799748599827 0 1 0
540 1 23.512272350916916 9.92626451625752 3.3382007647560252 0 1 0
8 1 23.040841541285932 8.159829961663545 0.9253466078718676 0 1 0
368 1 21.844864017775436 11.949723711289879 4.3176370994987545 0 0 0
382 1 24.683108005516047 12.195595860104989 2.0386090133497157 0 0 1
64 1 23.55663840384783 16.804460648962603 6.759976545568576 0 0 1
58 1 23.85994161642442 16.095009324113796 3.8799753676131408 0 0 0
1737 1 24.9840263774496 1.4654695271676772 8.65620063042886 0 1 0
49 1 22.80193472119621 5.440034111764021 6.770621159340503 0 1 0
299 1 25.505466306994315 13.832589276912532 4.273707119640143 0 0 0
298 1 22.327859738266486 9.82339745997804 8.400993280626079 0 0 0
54 1 21.4445127951818 10.3656830905959 10.91576489386842 0 0 0
392 1 22.286309203754755 12.268702676447617 7.030371056241467 0 0 0
1928 1 23.1719133456508 0.2987366796645957 20.99688856431856 0 1 -1
21 1 21.9826362159644 14.831880458273266 8.132869696371671 0 0 0
26 1 24.88197847636974 18.16424728577489 8.74110220997844 0 0 -1
35 1 24.39790466271786 16.58091507684585 16.547226611913278 0 0 0
68 1 23.28748664504662 5.838011215312972 9.690003698737817 0 0 0
465 1 23.4539295211123 3.1222006496357517 10.349247210714603 0 0 0
4 1 22.89695940438865 9.044286129787036 13.164632839308103 0 0 -1
36 1 22.140622657616134 12.963908400190228 11.572041735657578 0 0 -1
27 1 24.089706947588844 12.847757143906408 13.572583057677749 0 0 0
41 1 23.732318610182745 14.787111026919494 10.250568894681969 0 0 0
108 1 23.716259684937906 17.30169021119899 10.967763379113565 0 0 0
44 1 23.08175860092231 1.135222955127717 12.855028925626458 0 0 0
38 1 23.788301572851047 5.419243757634093 14.707126769782787 0 0 0
19 1 25.624058261836588 2.611451186350038 13.282217192450386 0 1 -1
25 1 21.869604469381535 7.440359582225083 14.908755801449606 0 0 0
332 1 24.89491299148381 16.046738862464878 20.67363763113959 0 0 0
71 1 24.98418251185353 7.52878545246374 6.560973204378206 0 0 0
645 1 25.61812327032512 0.5970539595651545 19.751056002683864 0 0 -1
583 1 23.25449649746886 2.6359923662971356 15.254884212818206 0 0 0
1568 1 26.186613640234068 5.2665444345940955 22.563561829470665 0 1 -1
20 1 23.526285277345814 8.165957077862913 17.379354230886268 0 0 0
7 1 22.61996201473605 6.565782564785669 19.47157718995556 0 0 -1
18 1 22.247999364298238 13.188810517693309 19.201998387426734 0 0 0
24 1 23.368635335276856 10.936711397694502 17.487056956118465 0 0 0
656 1 25.036419885059498 6.161051740359188 1.2618879804016478 0 0 0
47 1 22.87566801196978 15.819493305673662 18.758675223038683 0 0 0
42 1 24.66314463516936 7.743926853855635 11.46370139665844 0 0 0
356 1 24.43086935458046 10.739877597441488 15.018081174146436 0 1 0
66 1 24.922989558300287 19.29947320452955 16.94991063479848 0 0 0
9 1 23.7274565356919 3.0758198184920476 21.97701575226481 0 0 0
16 1 23.887532207305902 16.321230978685712 23.407332418657635 0 0 0
30 1 24.987091534321006 9.334753682040203 9.078912723360565 0 0 1
43 1 24.201737757893632 12.373737811744189 21.583398465994286 0 0 -1
529 1 25.734303579784076 6.813915752984478 16.170358123132747 0 0 0
306 1 24.789303881217595 12.504037104070116 6.666403968713272 0 0 0
488 1 25.43202127163865 11.46373529008023 11.081714921142142 0 0 -1
29 1 25.111071964703832 2.169371683078482 17.50230159408921 0 0 0
61 1 22.57864548151 19.985121843038886 5.654698269517314 0 0 1
15 1 25.96214962732792 14.83132800217758 14.216400051642141 0 0 0
39 1 25.424134629278925 6.412243392843757 20.33133250142059 0 0 0
48 1 25.919254612088256 11.191232003807476 18.928052602229965 0 0 0
317 1 23.94659785564953 19.786324603777366 21.17615971764809 0 0 -1
316 1 25.96603132786875 9.172934047320213 20.880909694420502 0 0 -1
486 1 26.08047884649294 14.02576329830208 8.501349496070343 0 0 0
466 1 26.079818489571537 5.489058873584225 13.014453567487909 0 1 0
13 1 25.260286957449118 17.376330542489285 13.059763840364099 0 0 0
430 1 26.122490720162876 9.751592613296271 4.146008167722613 0 0 0
113 1 23.457188243428227 21.95148426508493 17.219961871557835 0 0 -1
136 1 24.746303858959767 26.340011166797733 3.3111643222802876 0 0 0
128 1 21.773977997076187 20.328457791986168 14.52900762661676 0 0 -1
97 1 22.330876939089773 39.535223162396484 16.86953871201867 0 0 0
947 1 24.666691194396957 27.089675730850683 0.7596322797132812 0 0 1
968 1 26.23638977193841 36.39137842028481 9.476402458443731 0 0 0
92 1 24.644132118737357 29.79611454590892 1.3086989274842062 0 0 1
74 1 24.596005722820536 31.10350782878078 3.586165658570823 0 0 0
101 1 25.77231282523714 34.06204648921228 1.269361652158484 0 0 1
1060 1 25.760145029675687 23.734407093561735 16.72022498854026 0 0 0
120 1 24.506876272953892 36.80749136187204 2.227448933120833 0 0 1
89 1 24.567734755860492 23.80348585271904 3.270712979253198 0 0 0
895 1 25.852588010277945 24.0082964354947 8.983300432575225 0 0 0
134 1 23.989186525461154 39.59014875721313 6.737611575343997 0 0 0
90 1 25.15022236778045 21.99605615331758 22.229913096514586 0 0 0
99 1 22.869070091517187 27.627534915038762 5.190062465042782 0 0 0
127 1 24.413411033524966 29.73651928364513 6.1155607075206975 0 0 0
130 1 23.57465313326245 33.674162688068876 3.2416285116029853 0 0 0
91 1 23.016120808035193 30.517627340934656 22.635072169214617 0 0 -1
139 1 24.320243066353612 32.06529377805606 21.043336485177385 0 0 0
110 1 23.275664050466485 35.408929741403846 5.447992900311604 0 0 -1
78 1 24.855580976275657 37.509187885219866 4.81912336929839 0 0 1
1067 1 24.378264592586454 24.37479428512414 21.07319796945659 0 0 0
131 1 24.009490627165732 25.843884952379923 6.85142646402058 0 0 0
107 1 22.71274911074779 25.40178848496018 9.10312649787226 0 0 0
137 1 25.68830521216047 29.799785602848413 14.752295394101825 0 0 0
124 1 21.966822430446435 30.281068134984377 8.249046385589049 0 0 0
1106 1 22.797669544352715 28.019038296819694 10.045525373451309 0 0 0
102 1 23.146640942105744 32.88801453884824 9.380929948320759 0 0 0
866 1 24.722565745117617 34.65027156200474 7.8853507627689154 0 0 0
116 1 22.887726984884164 26.051371826664063 22.59605314200058 0 0 -1
939 1 25.462270712585834 38.97627483663658 9.040770691413575 0 0 0
122 1 25.064099379633838 21.101449504184302 10.849981805137283 0 0 1
135 1 23.33842650092602 22.331963735966582 9.120227347326667 0 0 0
438 1 24.409417852839802 23.496160529358395 12.360698706909274 0 1 0
903 1 26.119533537700395 27.139879598170964 14.247103584610178 0 0 0
896 1 22.840993268615218 28.25982960963051 13.087554660571264 0 0 0
123 1 25.06322891683063 29.572548133462988 10.850182358364291 0 0 0
84 1 23.14161770007566 37.10719065762097 18.462421996960607 0 0 0
115 1 23.962323212545165 33.17424942486267 11.817931581290585 0 0 -1
1290 1 25.46142640358921 35.40252877754844 11.96978210165408 0 0 0
37 1 24.447967648134515 20.432438606948267 7.081952696560637 0 0 0
752 1 22.334272381969555 23.24896526603986 14.52737467921968 0 0 0
1040 1 25.327088702005746 39.148403024430095 22.168815803205575 0 0 0
57 1 26.121895505691874 20.262415586185117 3.3221525800248606 0 0 0
72 1 21.08807466521952 23.659548331193488 18.00034944325754 0 0 0
119 1 23.17463278174496 25.953151159896496 14.450751165967228 0 0 -1
111 1 24.202091812604298 33.45475685677044 15.982719107330208 0 0 0
103 1 22.93078811937261 30.359135025535622 14.874819194090582 0 0 -1
106 1 22.271412354811314 32.87684133614339 14.088418386660493 0 0 -1
907 1 25.270786599128428 36.183751897487944 16.961223662746168 0 0 -1
1355 1 22.725104016406437 38.65179709705338 14.32226252925386 0 0 -1
104 1 24.79018394226398 37.125349444715845 14.38293573549914 0 0 0
79 1 22.663076432999496 22.251163299877426 19.90646035733585 0 0 0
979 1 24.954789643075788 31.36740649002432 8.308227855274742 0 0 0
88 1 25.509359680281158 34.433090956481216 22.178274364778318 0 0 -1
129 1 22.24821128051252 26.019582193071 17.470528647166766 0 0 0
201 1 24.40650090374697 36.89662794281161 21.237511745394652 0 0 -1
81 1 23.86627501863281 28.05986036058734 18.65349529774946 0 0 -1
805 1 24.14931644192769 28.29590843332642 21.365051778312655 0 0 0
96 1 22.65361286826025 30.113379947208102 17.704658280278327 0 0 0
82 1 24.3309467513222 32.036380221585574 18.17931143562991 0 0 0
2 1 25.95283174378089 22.332210528019775 1.4513278076252347 0 0 0
817 1 25.937497284854178 22.144087365822653 14.359743720084303 0 0 0
105 1 26.145396681620664 27.782072841448784 6.871462211755155 0 0 0
751 1 26.169534399651386 31.717475268053974 12.490824771630361 0 0 1
200 1 24.505591833926847 58.50427845540752 8.442374468196466 0 0 0
144 1 23.058798306602476 45.871240350336734 23.691218157399728 0 0 0
118 1 24.61614723135892 44.860831267166866 2.219861326446867 0 0 1
208 1 25.056600706605135 47.66269666367172 2.5336868020726198 0 0 0
149 1 23.80951876761215 48.4073633871728 23.610846247026586 0 0 -1
172 1 21.757544623820422 51.16257914429137 3.7296446127649574 0 0 0
1191 1 21.84251214211772 50.25253828351369 1.1087839916675444 0 0 -1
183 1 23.62346383165381 51.91705904620206 23.070236477032115 0 0 0
202 1 22.899830714392298 53.1990004856161 2.269240004409205 0 0 1
145 1 23.629247942377553 56.024406370922286 2.646775322198415 0 0 1
154 1 25.524843428299466 56.68378799765888 0.811393394025354 0 0 1
147 1 23.928101242726182 54.04644397044886 20.757304633522033 0 0 -1
209 1 23.748295789653024 44.967152994656054 4.990582778343526 0 0 0
1205 1 25.97970765443212 48.130215536883604 7.571719319729438 0 0 0
1239 1 22.210263756888736 47.4624617020965 5.439544100675458 0 0 0
1202 1 23.876680690735213 49.61718796360804 4.378662701945726 0 0 0
174 1 24.36023494398511 41.50026947455507 20.961071152733975 0 0 0
188 1 25.5393599503866 54.49313111775116 3.921373298222265 0 0 0
161 1 24.045637967155457 58.22287519320894 4.199069593916745 0 0 1
180 1 23.409032693705424 56.74209940610081 20.32259651524521 0 0 0
199 1 25.742053670347246 57.152457840116256 6.15975081377209 0 0 0
100 1 23.132191470035828 40.168623455922564 10.13146145154832 0 0 0
150 1 23.95316900788152 42.43781161117126 6.564679394397582 0 0 0
1466 1 23.253740426471396 42.95641403980986 9.074245380305404 0 0 0
1447 1 25.125132529824942 53.102238910252034 18.107113723001916 0 0 0
231 1 22.48898722678547 58.68398701765095 21.96612375565374 0 0 0
182 1 22.276842658134807 48.51528056135268 8.027770574283174 0 0 0
191 1 24.30718905772013 47.28134812639694 9.632093691120684 0 0 0
1321 1 24.60288514819675 50.37937624886565 6.8786251908072105 0 0 0
151 1 24.13456132440297 44.40155901703888 21.765750098752957 0 0 0
171 1 20.088676140255174 50.31366680629251 8.203370521594666 0 0 0
206 1 23.3540570348582 52.867900090441545 7.64156216257276 0 0 0
1421 1 20.916487114099212 52.13094367208281 6.340190508784802 0 0 0
278 1 25.50593161884047 54.21890990610239 6.875561425440573 0 0 0
1514 1 26.138972552261492 55.3747662091426 21.986588983136294 0 0 0
1870 1 21.001707872650844 59.56696632489622 17.703218154512797 0 0 0
165 1 23.68546468726741 49.55624249702338 20.808030589873002 0 0 -1
827 1 23.54932979793599 40.83251775900354 12.862517492656044 0 0 1
195 1 25.123874110543596 44.588779734527634 10.467703163572157 0 0 0
197 1 24.915163300253077 43.4950652507043 13.005941916500763 0 0 0
187 1 25.94332462068173 47.484667173305226 15.2097271647799 0 0 0
181 1 21.61454198446128 50.85741111425143 10.513388173938557 0 0 -1
1269 1 23.091457000050248 53.20814841914853 10.290690189060522 0 0 0
146 1 24.12874830901742 45.387267287498034 19.198438941634276 0 0 -1
167 1 22.320073554888037 55.137715262643134 11.97561418536803 0 0 0
1180 1 21.89221975807217 53.60813475517206 14.203417831043716 0 0 0
1268 1 26.135722012840798 56.87247904351106 10.627845233306873 0 0 0
269 1 23.986547141953753 57.23157087027935 12.50769195225818 0 0 0
1536 1 22.148504170472254 59.428592158953414 12.596526042675666 0 0 0
158 1 26.14167534718698 50.972682206501716 19.78088772121171 0 0 0
204 1 25.527495890135253 51.68054602976346 2.9945073469061043 0 0 0
189 1 23.09019143819959 48.87068117617637 11.724409998776478 0 0 0
266 1 22.137473582685914 59.91875984080941 8.22349354678227 0 0 0
175 1 24.438766785644834 49.81176145294608 14.276239652597113 0 0 0
178 1 21.539648687418293 50.89529722854737 13.798062550362149 0 0 0
185 1 22.506668359037707 49.90157997021879 16.286402683879643 0 0 -1
1334 1 25.65911346344716 52.420593183268956 11.00095841471336 0 0 0
179 1 20.90575225383613 54.489601962284674 17.08441300283418 0 0 0
1396 1 25.435936096769794 56.17516242479589 14.804130194389405 0 0 0
164 1 23.747942148179582 58.08214326873451 16.33336645716588 0 0 0
169 1 21.922183195317984 51.73831972095294 20.31045085515017 0 0 0
162 1 24.404704856229547 40.64049157579808 18.23552967596013 0 0 0
148 1 24.647681380750182 43.32505891884857 17.463949670343254 0 0 0
160 1 23.784128562463245 48.12099854608983 18.336081543727964 0 0 1
157 1 22.489806331441486 52.43804447791378 17.596802528314473 0 0 0
1342 1 25.163845229409436 60.041587402444996 11.267583743940435 0 0 0
214 1 21.6519356160312 59.2380806488749 5.447678224576743 0 0 0
1350 1 24.670209930500818 53.76420231420841 15.246306877015837 0 0 0
270 1 21.793133869300725 56.98315697480926 18.273693751603616 0 0 0
194 1 24.461708176726624 59.5441734108342 23.760810538940156 0 0 0
1143 1 25.56468185490438 57.87009215175636 18.822339482543256 0 0 -1
1257 1 26.144217312081626 46.20746543112469 5.4387458203078225 0 0 0
190 1 26.02841688124122 49.174826527482836 11.452447552697027 0 0 0
224 1 22.467054337379057 61.42909440272255 3.851505869164754 0 0 1
1545 1 23.528588258077505 61.9182362358737 1.3126693459442622 0 0 1
1789 1 25.269668326637365 67.40302062264243 18.580281588846177 0 -1 1
235 1 22.935255343465183 66.54599885961755 1.3095227683538537 0 0 0
258 1 22.230923804997783 65.94856665599418 3.9811059533423694 0 0 1
279 1 21.94019052667702 68.3876136874744 5.268978771602487 0 0 1
237 1 21.318797746905997 71.3566022699055 5.807063587010478 0 -1 1
1846 1 21.149288074293874 72.81423215909038 3.287530385467364 0 0 1
693 1 21.559641732645343 68.837945594835 2.3673442468561423 0 -1 1
23 1 22.10927275666237 71.21600239866261 1.1417192653553776 0 -1 1
243 1 22.757480057069976 77.76399210643336 1.3851071152551893 0 0 1
227 1 24.97979574705198 76.00084365466863 0.794009101925824 0 0 1
255 1 25.056028913501834 62.61174276870871 5.2566963101255775 0 0 0
241 1 21.777769020184202 63.78258396683529 5.252242735981555 0 0 0
233 1 21.375774535469574 63.09873038033943 8.068032162608281 0 0 1
1824 1 24.978388593539496 68.39852235408414 1.3563305044987852 0 0 0
1644 1 21.698095271073274 73.2377307419276 8.174278512461699 0 0 0
1643 1 25.634756564375397 68.88991073676159 7.2440467949522835 0 0 1
1546 1 23.715733056444844 74.47923348918523 6.794565285830699 0 0 1
525 1 23.73582175049498 76.73538616402656 8.261703721048987 0 -1 0
1893 1 23.503788787118935 74.5914183911707 3.9037581300802446 0 0 1
422 1 24.428815758030712 78.90490517081516 6.466937059974976 0 0 0
277 1 25.621902408369614 60.43982464291391 3.623675081496209 0 0 0
252 1 23.008768188014006 61.71304773743181 10.802151191054913 0 0 1
1772 1 24.144073580112405 62.83820892000717 7.8854443054806085 0 0 0
1589 1 22.287283268265853 65.58506381774687 9.436813542697271 0 0 0
230 1 24.165451513962456 68.12269919494112 9.250777388012617 0 0 1
1799 1 24.71284657486998 71.18969646500352 1.8988775073989344 0 0 1
1905 1 23.16752916395157 72.80439560552888 10.478618381682827 0 -1 0
272 1 23.204489745337188 75.00665676590562 12.20677379314919 0 -1 1
1780 1 25.957421362420877 76.29002583148767 11.762310255843916 0 0 0
232 1 22.698688804709505 77.44622136839877 10.80935700112701 0 -1 0
245 1 24.620180099462132 79.50498998347176 10.836816753824266 0 -1 0
1526 1 23.17680092285813 64.44992389744179 11.717975322516565 0 0 0
1825 1 25.600418508508316 64.62964251278126 13.211717943885885 0 0 -1
249 1 25.92830184948247 64.85372559200457 8.910459755662494 0 -1 0
228 1 21.55454386191854 68.41343364429561 10.68747784213295 0 0 2
274 1 22.70667496855622 70.6278921752914 12.042776671281722 0 0 1
251 1 21.204230761810997 71.41048628464624 14.047616136506095 0 -1 0
213 1 25.419228670969662 61.586962384979415 16.419249654988082 0 0 0
271 1 22.353588357102712 73.97888426574463 14.771319575324688 0 0 0
70 1 24.04731115435771 79.59152859246498 23.63785181256195 0 0 0
234 1 21.427175341556307 62.011396519103975 16.24489973254427 0 0 -1
32 1 24.758686309279646 77.272722500905 17.0472719328407 0 0 0
260 1 23.122026506650307 60.43334982490691 14.984139510170802 0 0 1
1874 1 24.71535069794988 64.19119122693982 16.18433094433648 0 0 -1
250 1 21.499686508411 66.64934566944825 12.843068244740765 0 0 1
264 1 25.44915126117594 67.14148932941228 15.861734564870746 0 0 0
262 1 24.474480178640487 69.61101811595849 13.977287067330776 0 -1 0
247 1 24.48084777982361 74.49362074037612 16.651800449340257 0 0 0
261 1 25.830641696929188 69.213103540409 11.172769215009907 0 -1 1
1281 1 25.850062618452387 60.83303315385733 8.240518291830874 0 0 0
634 1 24.97747943033837 73.3510481978588 22.685010042123306 0 -1 0
196 1 22.329729288129865 60.70685572055249 19.881146039495622 0 0 0
1611 1 24.554931162203896 69.388217721461 4.650499851003012 0 0 0
242 1 22.231982400543647 64.45150666752002 17.32694181842973 0 0 0
219 1 22.476367787044104 63.6915635219802 19.953019213305218 0 -1 0
177 1 22.529079464875828 67.07270585245686 15.48981182895556 0 0 -1
1623 1 25.145396348793568 72.14162205958885 4.516206073689493 0 0 0
263 1 24.969825104090685 60.43898202054488 18.766446147044295 0 0 -1
248 1 22.517871165132973 69.97398666187419 16.06512221969903 0 -1 0
238 1 24.287772110674165 70.17941696748474 18.501473294033456 0 0 -1
222 1 23.901166509583188 70.80125152877797 21.355308463719055 0 0 0
1505 1 25.015135069623476 62.517214261266204 20.7572428643045 0 0 0
229 1 23.738649285488616 66.23720327774427 21.425488425403312 0 -1 0
276 1 24.021041644592902 64.38750919027046 23.343888535332297 0 0 -1
225 1 21.274907195819438 66.94438542468626 22.36675810441395 0 0 0
1632 1 25.06520495076885 68.48874218463368 22.302433928197445 0 -1 -1
1532 1 21.585614171249873 69.93087165545826 22.224563673525694 0 0 -1
1918 1 25.42599247490668 75.24108179643771 20.705768089351277 0 -1 -1
236 1 23.927519364041395 77.56989121155326 3.8665853649042585 0 0 1
1585 1 24.94855483590071 65.00182713465847 4.068511341710287 0 0 1
244 1 25.655174646743315 64.37347830819752 18.701737823087246 0 0 0
630 1 25.924580672878758 77.7441634916422 19.2794276535573 0 -1 -1
265 1 26.054922555646314 72.15755449039759 10.245158901109093 0 0 0
1929 1 25.557977584619714 80.13423121770964 3.2759222355512083 0 -1 0
259 1 26.168690145392084 73.19237463328187 7.5522895128748955 0 0 0
1622 1 26.195271515028477 76.45914868965451 9.245196163085062 0 0 -1
11 1 29.922163116512017 1.0086605958099968 2.3599563345358368 0 0 0
288 1 28.29350027778149 1.3820278994709878 22.93470185898184 0 0 -1
289 1 31.632883096610474 3.692735531318005 1.8614411692744184 0 0 0
336 1 36.16235250216542 0.7619796041896274 4.821711344129737 0 0 0
353 1 37.200851647530904 3.0298269246479688 1.4353174087314253 0 1 1
424 1 41.04807360144704 2.1716910948594568 2.255897257365461 0 0 0
1762 1 41.25763491240081 4.503903036327727 0.5795884041448985 0 1 0
293 1 44.996076674979534 1.4950865648035856 23.75957518520118 0 0 0
472 1 46.58460634895888 2.1784991401515894 4.097820057339478 0 0 0
294 1 47.53970860356905 1.1813150690891647 22.674331977686972 0 0 0
333 1 51.797458942292366 18.639269155426597 20.736997057308557 0 0 -1
346 1 28.9214716671326 3.7783189651216196 0.7181844531315282 0 1 0
280 1 32.93945579378888 6.674671747827119 1.2947801716775544 0 1 1
637 1 32.72411659393472 3.351938721854762 23.015641295945073 0 1 -1
364 1 38.90522633474885 5.360463661526009 1.5492860690040493 0 0 1
290 1 35.678417519165016 5.951621776136417 0.890717656375464 0 0 0
365 1 45.415944198956666 3.773136626983039 1.9532960890913416 0 0 0
661 1 43.80911593018972 6.0351489859106415 0.7490606777490064 0 0 0
246 1 30.086973909698283 0.6476404738956784 15.56705346468949 0 1 0
10 1 27.207639227000612 1.8038665850215598 15.561939588393619 0 1 -1
412 1 30.097969847410738 7.31907116726663 1.515420468052329 0 1 0
363 1 33.738920032724735 9.234664137172784 0.9215448180316661 0 0 0
351 1 36.18636337017568 8.829609790510535 1.7161448173522418 0 0 0
428 1 43.07253325663367 8.566361768244374 1.976938313237407 0 1 0
427 1 46.113045699544514 7.161580023507286 5.143605584252794 0 0 0
1805 1 46.007055705495745 0.005212310689724088 8.484782571222663 0 1 0
572 1 43.21886323886628 19.690005828888697 8.193618362597569 0 0 0
321 1 39.34697670360261 17.904167991729764 23.218248223153847 0 0 -1
297 1 29.880025573801948 10.061950473936983 1.1726388767452525 0 0 0
407 1 32.35574508262681 10.761565709842925 2.801028471993883 0 1 0
361 1 31.82715534345751 13.604989152986414 2.7892135612587463 0 0 0
374 1 35.028940217332305 11.572574405375617 3.342739021620925 0 0 0
373 1 36.78552205476755 12.10579013072843 1.1127971939587356 0 0 0
425 1 39.472867543203094 12.310462177548818 1.6790710995097213 0 0 0
376 1 44.25625738259528 13.015008892226053 2.3818540426286847 0 0 0
379 1 44.40946431949023 10.466015581608973 3.2420598677364443 0 1 1
436 1 48.07627324252172 11.037794804242647 6.430319046845951 0 0 -1
313 1 47.003907646817765 9.746800454897347 4.145273045872328 0 0 1
367 1 50.5389218439211 10.74206524537153 2.1046537184304834 0 0 0
664 1 49.77511265597205 13.393804197854292 3.486143741602532 0 0 0
307 1 26.506690190304376 16.435127423028035 0.3093233674429001 0 0 1
63 1 29.763438311135655 14.75253626383506 1.8893323464088896 0 0 1
666 1 33.940915353576166 14.506493776146089 0.9894239140650464 0 0 0
559 1 37.38107122660702 16.982012406503962 3.176996226022781 0 0 0
328 1 36.716754038794285 15.051027586970799 0.9814411700653304 0 0 1
385 1 42.44891236946625 14.767191755698637 3.774193545479513 0 0 0
513 1 39.31283608056783 14.766380092679645 2.7044156430317936 0 0 0
322 1 46.65955359144853 13.43074457572629 3.4560258864405173 0 0 1
633 1 50.51333037130041 12.205503816457261 6.712361460951627 0 0 0
671 1 49.666273310108444 15.208371931095373 1.1176268587870246 0 0 1
706 1 29.009728582269386 18.964434924331197 3.097514134018076 0 0 1
581 1 46.50858503603673 18.488254499857305 22.25215249482668 0 0 -1
370 1 27.84576340825494 14.063507070990891 23.47886416126468 0 0 -1
819 1 30.60020900866675 17.511492544388645 1.150978159482732 0 0 0
698 1 33.50937060016367 17.27703344999194 1.8245034253901973 0 0 0
576 1 35.79544900732178 18.847350264636276 1.444577712125048 0 0 0
456 1 39.00741197944409 1.1419403279192042 10.301205192475978 0 1 0
387 1 42.8443491531645 17.51874767067194 2.9043755422263655 0 0 1
399 1 46.56648980183414 15.894044588451143 2.17563920902799 0 0 0
446 1 48.6555904829169 16.989333289558612 3.875204429873092 0 0 0
1579 1 42.530105537761344 0.24467339117875658 3.6865323244461554 0 1 0
369 1 27.168493543512675 16.52987655507447 9.0122346261262 0 1 0
1727 1 30.732659447518756 3.2546816628189155 5.187190228747123 0 1 0
1865 1 32.32182792369377 0.6788238281068897 19.27452863246931 0 0 -1
413 1 33.32101484464188 2.731749255949182 4.512495834235565 0 0 -1
360 1 33.313930777079015 3.08382645914178 7.326482969097624 0 0 0
470 1 37.232198935619955 3.3047857124910043 4.922004403292419 0 1 0
644 1 26.59660152086106 3.2857989264788943 6.66221835938882 0 0 0
437 1 43.82657537925094 2.273575887935936 5.361301006697733 0 1 0
508 1 49.631529078088114 1.23975134270699 6.12087035819626 0 1 0
574 1 26.530493550345728 2.6459318355063157 21.329999009968052 0 0 0
282 1 27.03293031396115 4.454964912700843 2.600808859463283 0 1 0
357 1 27.36222882298303 5.920604870149795 5.658502498701927 0 0 0
594 1 30.24181282364318 5.737173587348881 3.9639151771722525 0 0 0
431 1 35.139609400898394 4.670691741513702 3.438382512953397 0 0 0
414 1 36.83708239759647 6.653602909078791 5.157447950215232 0 0 0
292 1 39.4751935218486 6.0524865792841895 4.213996656497313 0 1 0
377 1 40.16108942894271 3.371947352268969 4.574843622661113 0 0 0
462 1 44.076922398497885 6.166383666481423 3.649633640975954 0 0 0
354 1 42.64355661755169 4.77883532426898 5.480780926964633 0 0 0
417 1 49.005486570005345 3.603982094032367 4.416868983110786 0 0 0
502 1 46.58401302075223 4.4605246936576055 7.909689614336035 0 0 0
300 1 27.333495550147795 7.347544557655202 2.878353997586454 0 0 0
761 1 45.431222669978254 20.013928083284394 1.8873095352763392 0 0 0
442 1 31.740799985657215 9.125921080565128 5.334712524602207 0 0 0
359 1 32.87080338635714 6.65642628365891 4.122773634733959 0 0 0
491 1 36.371207632608005 9.476978022414906 5.004754074546499 0 0 -1
378 1 41.24492472820087 8.58384971807624 4.080155777690889 0 0 0
524 1 44.47297104190963 8.345876109820566 7.238623015118727 0 1 0
485 1 48.492707286616636 5.676429679741267 5.922097502944875 0 0 0
544 1 49.564003410208336 8.370744492110017 5.775153273680199 0 0 -1
623 1 51.69436767428451 7.350008852497974 16.733862910669494 0 0 0
1639 1 43.26179441302025 0.8726144868249267 7.731855794798529 0 0 0
372 1 27.951395198565763 11.664879004432784 2.7307912280136613 0 1 0
395 1 29.427952825634115 10.970238686735703 4.981360671957492 0 0 0
542 1 34.95505437704599 13.320217085909265 5.519482200435383 0 1 0
308 1 33.95242242895775 9.47322829760917 6.799380452389408 0 0 1
311 1 38.911692046461944 9.994632566467057 3.547597286055461 0 0 1
444 1 42.922187121536346 10.338431799941233 5.608748947104747 0 0 0
610 1 47.2494507441026 8.847162940742612 8.066267229787556 0 0 0
400 1 49.98390916927233 8.118365112783806 3.1187999693724984 0 0 0
383 1 27.84798429669586 15.006971847313766 3.7588803972782334 0 0 1
348 1 28.97468021097349 0.21360217428544753 11.551821342817046 0 0 0
1104 1 32.31067193901875 14.766064020197774 5.233674234261124 0 0 0
561 1 36.14236056671089 15.734796062764037 5.488595858266487 0 0 0
560 1 38.74940542980209 14.336430770300268 5.142811535645577 0 0 -1
494 1 40.220615204887615 11.70437246170685 5.519173608243139 0 0 0
416 1 46.38421782085563 13.38839221643849 6.55076535460761 0 0 0
388 1 43.69679737516602 12.279445871150271 7.394959914762456 0 0 0
501 1 45.1602877950866 16.527135608155927 4.560891054680919 0 0 0
1761 1 48.635663384618844 0.5454200010898208 1.6243509662381623 0 1 1
355 1 27.503882198497585 17.176016535427767 19.77885659606312 0 0 -1
515 1 40.211906660352646 19.269184687906588 8.492919528815762 0 0 -1
636 1 30.303593972485704 18.653890240825223 5.4715074345561705 0 0 0
673 1 32.919496075988825 17.75760908078591 4.484703550000757 0 0 0
329 1 34.72800261438969 17.786162341529113 6.760926504249028 0 0 1
443 1 40.90926315539002 17.899140371709354 5.906444095447602 0 0 0
452 1 40.47923966383411 15.522518856289896 6.982899281475186 0 1 0
1695 1 51.89423936609058 4.099973073436811 16.75842996260411 0 0 0
1990 1 49.691666386417985 15.541521390826631 5.877474753489117 0 0 -1
504 1 46.855469990811834 18.653340647946898 5.522956234915339 0 0 0
1993 1 51.980122247464784 17.024356118949267 0.9883653178235464 0 0 0
478 1 28.628310628363167 1.4096188377391092 9.094011481369249 0 0 0
710 1 43.302448715922424 18.975165375147334 5.587459332699625 0 0 0
674 1 26.3752383736484 13.788685355650255 20.119719234299396 0 0 -1
349 1 30.59308081782556 3.210899932993377 8.41766227316012 0 0 0
457 1 33.964211329981445 0.8257868957741237 9.169874614214738 0 1 0
1684 1 35.27951700381205 4.082844024126759 8.935491413380872 0 1 0
405 1 37.59391624786492 2.900078068730417 7.716806522602043 0 0 0
1751 1 40.82545181728357 2.3253146159764437 7.0424174759810585 0 1 1
340 1 38.93326704328268 0.9352947198744097 1.093059209382625 0 0 0
408 1 46.80788864569216 2.190607111781017 6.909765400256323 0 0 0
3 1 32.59523203216359 0.3345512515996174 1.5769557435031967 0 1 0
484 1 48.959969404030616 1.053465599391134 11.145239587070629 0 0 0
391 1 27.960910201566968 2.4760978359577726 4.417233834903517 0 1 0
479 1 26.37498976937741 5.466781136242747 8.82870643965533 0 0 0
533 1 29.547598906605273 5.569255899052495 8.77102392725519 0 0 0
362 1 36.1440176871582 6.6381741018419795 7.916215130219367 0 0 0
1750 1 39.482788856075246 6.3706363888140345 7.346276063507218 0 1 0
415 1 44.161167591648464 5.524677352509027 7.555864991004189 0 0 0
471 1 47.47117097845715 4.8822592521497 10.496019623691408 0 1 -1
345 1 49.81212347624781 3.56731244236191 10.422930451426366 0 1 0
546 1 50.59365507152503 4.9231920662077355 7.9215059594838175 0 0 -1
891 1 45.00021315243213 19.83469779565522 13.188683084202674 0 0 0
1062 1 36.80713323749392 17.709238214352794 22.593954484306543 0 0 0
386 1 28.975838340622133 9.675749728106107 7.802004015791541 0 0 0
500 1 29.973120606631475 7.512932400761109 6.49097351568203 0 0 0
468 1 32.47846104398442 6.005537186233582 6.996526366541728 0 1 0
481 1 39.236271458299505 8.861821592919314 8.322361391464117 0 0 0
482 1 44.50636227014593 8.642979322069383 10.084205142302949 0 0 0
1955 1 51.08031090234781 9.314140413124942 10.688501969669119 0 0 0
600 1 49.503113804143105 7.240821753007425 9.06788883886486 0 1 0
1001 1 32.580634374288735 17.122883055360166 21.28761998311851 0 0 -1
441 1 30.87926616139379 12.649073159746912 6.779804685130028 0 0 0
440 1 32.5955788052295 9.341157453585643 10.898401670807592 0 0 0