LAMMPS data file via write_data, version 29 Oct 2020, timestep = 50683

4953 atoms
1 atom types

0.0 78.752 xlo xhi
0.0 80.13644830362759 ylo yhi
0.17853544887724837 23.821464551122684 zlo zhi

Masses

1 18.015

Atoms # atomic

3420 1 2.597151112808905 4.023482804317117 23.08580043751632 1 0 0
2071 1 25.937595380121056 19.660773436488082 22.66474010583501 0 0 -1
473 1 11.116125963933786 17.841023505627707 23.457859612456303 0 0 -1
2793 1 19.40179230271624 19.666954280311035 9.714231007414428 0 0 0
339 1 8.961736215293802 1.2470344948975594 1.8866277358279888 0 0 1
618 1 10.344172326495068 14.802661537094016 20.155524914307694 0 0 0
1334 1 13.815005551930046 4.330023367790954 1.5280563795265234 0 1 1
637 1 8.065918368360919 16.172846255353218 19.023368998611176 0 0 0
4699 1 3.345595004553681 1.186413811885574 20.699368162054547 1 1 0
183 1 21.254420000182826 4.0810232463344525 23.59463456767006 0 0 -1
1412 1 4.298703674434014 0.050625511216268314 3.7674563000469057 0 1 0
420 1 10.895325541940284 19.232990392115628 14.66662917671184 0 0 0
3701 1 0.2662020140972745 5.738850942275633 19.912153748773164 1 0 0
459 1 7.7900483053414575 19.32412525550677 0.4858453625048967 0 0 1
217 1 7.917739892150245 3.6875466132135304 3.9153301801379388 0 0 0
403 1 10.2214650265279 4.056007614461365 1.944764905262586 0 0 1
181 1 12.424926534310762 3.3204516334501535 3.7289712359176326 0 0 1
42 1 14.446567671708227 6.849502854239045 2.1169370075348866 0 0 1
35 1 15.801933545244689 2.3627893534812676 0.8160431701963409 0 0 0
1436 1 18.57781591871402 2.6859913608691146 1.933949988494718 0 1 0
1800 1 24.50875842199352 4.524341425072241 0.2117368650467597 0 0 0
615 1 2.5420076521900725 7.55302546713627 1.392901615851871 0 0 2
4816 1 6.099149236371616 4.690862939746505 2.393712529979019 1 1 0
1308 1 5.111192809694748 7.216224359297406 2.3888137691281277 0 1 0
401 1 8.187106000252996 6.04825163071696 0.7236238652257913 0 0 1
786 1 8.350238724876776 6.426923107297146 4.941452537847467 0 0 0
304 1 12.423154531053857 7.636793971766316 3.7335766629097593 0 0 0
14 1 19.71236492667896 9.826054224994499 3.0213784051255717 0 0 0
379 1 18.98511610717229 6.73268111807036 3.00563304335617 0 0 1
290 1 22.078706879416927 8.130703696584904 4.394706535386626 0 0 1
2028 1 24.51022707868325 8.071951072784813 2.5016655465324353 0 0 1
246 1 2.4155894463503946 10.324389730408656 1.0548317421350393 0 0 0
422 1 8.23037214919761 0.6294270019540963 11.23809647894639 0 0 1
320 1 6.831616540716746 9.540264086190772 2.375807036974597 0 0 0
3839 1 9.550725708896078 9.600047316521982 1.3534823637185125 1 0 1
566 1 11.302426662357645 11.397731106402231 2.276103562417043 0 0 0
243 1 17.39333703337198 11.173622427791047 2.132417649122769 0 0 0
133 1 21.158829367469345 11.002284252229455 0.8525923368939737 0 0 1
495 1 25.18575624850764 12.057945952959546 2.439017938384221 0 0 1
71 1 24.154147680411878 10.327468857934164 0.6505172495715339 0 0 0
76 1 1.804745517673767 15.39423968665724 1.384222972602087 0 0 1
280 1 4.1450390660253325 13.134783863981388 1.8766317104295747 0 0 0
438 1 5.777909971181217 15.747231122748449 1.1739367888380745 0 0 0
3304 1 7.072588824864837 12.634537676541088 2.208130253610806 1 0 1
26 1 12.290737422285202 13.226175722821367 0.27651606980417043 0 0 1
434 1 10.11819494916984 14.694002990202188 22.936604739968875 0 0 0
743 1 14.280425455338595 15.120054620939108 0.8747339803567115 0 0 1
93 1 16.320779101405805 14.09656866436782 2.493446401946485 0 0 0
1876 1 19.02483972745114 14.93734455265529 1.8986266502791478 0 0 0
179 1 21.065645400160257 13.557036784922616 0.4128866487406416 0 0 0
288 1 23.13694675680604 14.831024904854582 1.974374595751 0 0 0
140 1 6.6299487788569715 17.447985262728864 21.8582159538328 0 0 0
751 1 7.649109388086012 17.376755977755444 2.7794003445290496 0 0 1
629 1 0.07825185131770451 18.958653440278653 19.9817043406341 0 0 0
745 1 10.083334408439738 16.165477634519828 1.9946952158266333 0 0 1
3281 1 1.5067517937833765 2.5455806688971703 1.6368799916929013 1 0 1
178 1 25.6639443806987 11.53127697864342 5.774696055129659 0 0 0
683 1 0.2417026831518038 6.942426455289095 4.9105542357994665 0 0 0
1795 1 16.545088567522612 18.015770712449488 3.813030193980049 0 0 0
1987 1 23.36318696198136 19.3235127949524 0.5217089196455003 0 0 -1
3491 1 1.7610881591027698 16.627606516484732 20.94244485804844 1 0 0
343 1 0.7779906988263824 0.37628024039264035 4.977759587934567 0 0 0
3475 1 3.331045776506533 2.019119988204953 5.612167532666444 1 0 1
413 1 7.176575260433927 0.5512033603591081 3.951516393456183 0 0 0
250 1 11.703388525058713 0.9323236845457678 8.138554718850578 0 0 1
2266 1 25.61126535247702 18.276517258186818 13.512600892259183 0 0 0
306 1 17.573064690240844 0.8463162838282791 5.367123877280152 0 0 0
407 1 18.705409561969404 3.594921600229857 4.762785675901413 0 0 0
3257 1 22.401298756593146 2.4348864911795802 4.814193582795344 0 1 0
1289 1 24.94169459666907 1.790941767537932 4.83328269087738 0 1 1
3306 1 1.4324921632758785 5.384448801836084 2.873060255344773 1 0 0
329 1 3.638814815101628 4.1858245468498625 3.8955338596173674 0 0 1
242 1 4.184499913909528 5.823517160403033 6.024951097196681 0 0 0
22 1 7.423476813737282 2.6252326915242548 6.374974115876808 0 0 1
148 1 6.577748061368819 5.238060861263009 7.303057869609024 0 0 0
415 1 9.721036997572178 2.8026823710344186 7.891006070034376 0 0 0
1741 1 13.700713111561269 4.410065852892481 5.991352950418339 0 0 0
1447 1 16.53742888800476 4.981009916609384 5.629367776029246 0 1 1
236 1 20.057427150621162 2.2783873500346186 7.139949028356361 0 0 0
430 1 22.580146208730447 4.852746731768052 2.6725361808710453 0 0 0
189 1 24.789424847063685 5.806695678354813 4.005218490107566 0 0 0
1814 1 23.075572605722158 6.848096420383567 6.786153723285426 0 0 1
364 1 4.509549862478928 8.130642731435701 4.780703831191425 0 0 1
4081 1 7.095482185418649 9.20560446916437 5.2658226790739135 1 0 0
50 1 12.307635656999137 6.6598848466604625 6.117520380560839 0 0 1
1653 1 15.599910273878542 9.921900981037417 3.7969096791360086 0 0 1
232 1 16.53720352422101 7.041808290240703 3.808639231196111 0 0 0
195 1 22.639449794816436 10.304576553759714 6.14271010588995 0 0 0
86 1 19.06548739614813 0.39240559739586356 10.996938093995302 0 0 0
3614 1 0.8568421662649897 11.350318853741276 13.813905183569611 1 0 0
3746 1 0.6782458582187186 12.380518003855313 6.864677473766134 1 0 0
3640 1 2.2720027824951594 9.784112560796306 4.413483742896587 1 0 1
3315 1 3.117607765435324 12.75576464253122 4.446143143246984 1 0 1
356 1 6.337492477097904 14.102755410920794 5.718904189249663 0 0 0
694 1 8.0652096832351 11.84423615790366 5.924701082976871 0 0 0
314 1 13.023032207034205 10.470353698439494 4.261391958414217 0 0 0
8 1 16.906928602412957 9.377463941485821 6.252218161571841 0 0 0
411 1 19.10165277436905 10.77940247677858 5.762241679970064 0 0 0
1497 1 20.283979198725554 13.042207752212407 3.6360110254233082 0 1 0
1747 1 23.017529031123424 12.713908129588251 4.180173904487034 0 0 1
3649 1 0.12667769767054787 14.012034457026196 13.753794100141832 1 0 0
249 1 0.8416758463756021 13.919925612088274 3.474545584186686 0 0 1
3303 1 0.6504031925963951 15.909934427739836 5.868489263107001 1 0 1
390 1 4.885484311611155 15.600347497705704 4.011682460308025 0 0 0
268 1 9.26095914777704 12.89167523613521 3.6409658897842485 0 0 0
33 1 10.775063278909771 14.948913822967052 4.747024495343801 0 0 0
131 1 11.759073138637566 14.239876965235865 7.125665903791548 0 0 0
88 1 13.914356189617406 12.405014517390086 6.230556233853116 0 0 1
3395 1 16.132319630002957 13.886564109288734 5.265950444392152 1 0 1
160 1 23.300904775907284 15.397121417082575 5.804024336692079 0 0 1
40 1 20.54401309935692 15.305640530982075 5.5576690443448715 0 0 0
2357 1 23.902982024728587 17.718795825637912 4.26241178463187 0 0 0
3642 1 2.2395384571700605 17.064909130459373 3.870534734888007 1 0 0
207 1 3.505628763473087 16.95005292815437 23.160332902077403 0 0 0
3834 1 4.077727415147081 18.994210236163667 5.200144512980854 1 0 0
367 1 9.12918774421142 16.931565808268775 5.861847781784639 0 0 1
1761 1 17.272509693251493 19.647617001833837 18.053855159048666 0 0 -1
539 1 12.98791808683549 16.199650493137778 3.217430661970819 0 0 0
135 1 15.101321784966716 16.418267787940913 5.502474042388798 0 0 0
2202 1 19.391143563963617 19.301637322574194 5.837985605576202 0 0 0
92 1 19.307555460868414 16.997271553841177 3.953017053457939 0 0 0
74 1 21.910148525984212 17.525902949641196 2.3300389015008176 0 0 1
307 1 21.151335727919268 19.09378000431649 22.676437319197248 0 0 -1
1873 1 25.416980367019658 15.332495534345234 0.5690748149696397 0 0 0
30 1 2.377530206029646 0.707008464369233 8.720248228896498 0 0 0
3684 1 2.521915349982628 3.325405270345334 9.68127684318123 1 0 0
352 1 4.827480752801171 1.6767456267999337 7.671015171048171 0 0 0
17 1 24.175707812128508 14.337415202431718 21.695941537451613 0 0 -1
1245 1 8.404213040665478 3.028348549797343 10.302825897805423 0 1 0
11 1 24.340978203727527 8.06243121938345 10.518164821245415 0 0 0
332 1 13.84861153222587 2.755256699647933 8.118146883653633 0 0 1
201 1 15.64336848840294 2.7312600047781967 10.208676635970063 0 0 0
331 1 18.491519136896763 2.6700290950661794 9.65941110268192 0 0 0
648 1 16.796891095014868 13.553158852213596 21.172836221178617 0 0 -1
1323 1 23.712807243378872 1.494892776441945 9.079116693149109 0 1 0
226 1 2.584142813442349 5.5561558150314765 7.875926479556534 0 0 0
791 1 1.0808077960661557 11.507691256654352 19.671746744672777 0 0 0
580 1 5.551493739937074 3.6614917034338736 9.619964038859777 0 0 0
292 1 10.157711799512605 5.615500597133773 7.144135253393415 0 0 1
335 1 12.625800968699762 6.181563451465075 10.423346652748922 0 0 0
370 1 20.63122133381446 5.579942340686838 4.769301366037722 0 0 0
1356 1 20.49862875593589 4.837208111344374 9.503200306212465 0 1 0
98 1 22.585235990864135 3.841702968395953 7.979172636960283 0 0 0
3453 1 1.1074087655031504 9.679878988533211 10.014358763103203 1 0 1
3 1 5.80946434321914 7.985678786624001 10.266681917737976 0 0 0
69 1 7.321686098841544 7.915861487809243 7.901324151642387 0 0 0
106 1 9.918110921927065 7.714992017214246 9.014498904824453 0 0 -1
139 1 13.337144299380077 8.282845045312135 8.049965985303388 0 0 0
267 1 15.554554268785617 7.062915605948595 9.805340076628873 0 0 0
272 1 17.30631939736961 7.112264970634167 7.577407753490611 0 0 0
293 1 20.49507599419723 9.880867792131918 7.846096656258669 0 0 0
3459 1 2.7544101377471955 10.515037446132427 7.466309393610333 1 0 0
173 1 3.9186576161142193 13.263022844145958 7.399302362291861 0 0 0
617 1 9.995971051774939 12.299598259525185 8.102522303858091 0 0 0
167 1 11.626608323461463 10.157750974245175 9.002942819959015 0 0 0
468 1 15.161373449646383 10.475157490405133 8.021243114311496 0 0 0
448 1 22.077174442113566 12.313839353754107 9.028227260592576 0 0 1
198 1 24.15300300407672 13.414582660119812 7.615477013355825 0 0 0
1882 1 21.500374245004025 1.7594628267407482 2.1656399522733754 0 0 1
151 1 7.206464869347124 15.716436605828278 7.604329184757311 0 0 0
326 1 8.82356728977379 14.623828239488661 9.634734346448457 0 0 0
410 1 18.27373934131689 13.335524751933516 6.666345986356465 0 0 0
792 1 17.691957282162804 16.435808845470106 10.70265881379725 0 0 0
391 1 21.85879858430655 16.978715257926346 8.307237100055497 0 0 0
516 1 24.87858223700743 17.032360939443432 8.352239844417358 0 0 1
1577 1 25.44897638803715 5.114828527267119 6.8181632492717945 0 1 0
187 1 3.5055868238456234 16.42239322894533 9.384160088469352 0 0 1
1700 1 26.062349201311573 15.276076073276078 16.304208476025227 0 0 0
384 1 5.165348882241254 17.971728396016257 7.692718102072078 0 0 0
674 1 9.645879316206205 18.458838711887978 18.310444615929104 0 0 0
371 1 10.93386936680228 17.94619629011785 7.772936323259451 0 0 0
780 1 13.302171314048433 16.58174820034438 8.082215005202873 0 0 0
3929 1 15.333588048269343 18.61176915306531 8.083742602551954 1 0 0
402 1 18.16282754451842 17.996226841292977 8.036501972122952 0 0 1
2072 1 25.793646464535094 18.49713328028646 20.172865983333526 0 0 0
2347 1 22.998307007082254 19.31982619598482 14.79508758275034 0 0 0
1977 1 26.115450598015013 17.963672183708358 1.7041250386504014 0 0 0
192 1 3.915974639961666 19.186358861113842 12.98562271609423 0 0 0
3401 1 4.925826061910327 0.7983706970981516 15.935913716428205 1 0 0
66 1 0.11376930186787604 18.262654560728016 17.17237582904928 0 0 0
125 1 15.085884121968421 0.5322658811192653 11.689918112108192 0 0 -1
1298 1 13.574883636602804 2.759207654141922 13.052975658586595 0 1 0
3391 1 2.4460432571023225 7.780681853599954 20.483922529425346 1 0 0
4794 1 1.6945134258877341 14.7938094203589 8.086665953533563 1 1 0
297 1 23.45554828582217 0.7078397690345185 11.564630629793912 0 0 0
500 1 16.428456597356995 16.185098424659273 22.200256006003166 0 0 -1
1449 1 0.28294496300300676 2.801461896440361 11.477817051120107 0 1 0
1753 1 25.596793516785453 15.76804810877635 19.848353110586906 0 0 -1
43 1 4.261201159393808 4.492270428019048 12.046096343674064 0 0 0
215 1 4.21270506390672 2.7749607488609658 13.936088483821566 0 0 0
3421 1 6.826045922228568 5.706953243265155 12.386955785647237 1 0 -1
351 1 9.805485613148376 5.176694596543411 11.570102206285727 0 0 0
194 1 11.561395945354443 4.9427488236300565 13.95144573081001 0 0 -1
1527 1 15.176478440964102 4.972730857095376 11.750680503499337 0 1 0
1283 1 20.041775175995667 3.3307603740186322 12.314764575216282 0 1 0
305 1 17.47339001575798 4.4429737188653124 13.525337498327202 0 0 0
5 1 24.690775082225393 4.681600980327981 10.227958246999094 0 0 0
3580 1 2.4744947387903418 6.725376618755726 11.903589373957697 1 0 0
116 1 3.2336596850651094 7.753568602539402 9.252964779335288 0 0 0
349 1 8.837067454869581 8.348780481976187 11.82737949231723 0 0 0
308 1 11.083166612032214 9.168287656714899 13.53146194315129 0 0 0
1580 1 15.101484915716746 9.40953575902596 11.407938687819023 0 1 0
96 1 20.050943719405225 6.668752964383669 7.433756228175166 0 0 1
65 1 19.109944220295088 8.544061212341692 12.686091779195323 0 0 0
360 1 20.462501403757553 6.209833689421595 12.168029303055183 0 0 0
247 1 23.450164254063502 10.703128196823714 11.222008282315107 0 0 0
145 1 23.183588581880148 7.3394744409307275 13.092397463984259 0 0 0
3601 1 4.771579210075995 12.79793973926113 10.409241819355142 1 0 1
118 1 2.8193139084377776 10.076908170170405 12.271333867993139 0 0 0
725 1 5.618573016094076 10.356807934367247 11.893118407737765 0 0 0
25 1 6.911158613509678 13.462827989248675 11.979494771459038 0 0 0
89 1 12.716600432780208 10.81361434671701 11.475044466112319 0 0 0
374 1 16.853316548125317 10.876945316322777 10.258606840484322 0 0 0
444 1 17.272841976431426 13.833893813274539 13.855265086001637 0 0 0
1820 1 19.375717472405867 10.291244852048871 10.547857797078063 0 0 0
663 1 19.94465088783129 13.32457138981093 10.274747015086769 0 0 0
295 1 25.383233583341173 12.706073073381214 10.187516560511314 0 0 0
1832 1 24.519483993720197 12.355978476686486 14.927460150814591 0 0 -1
19 1 1.5807806391942307 16.374612155377022 13.434241769799572 0 0 0
793 1 3.539909088156317 15.148654828083112 11.942073725293293 0 0 -1
3430 1 6.160427502856648 15.977514599410634 10.507133170033308 1 0 0
788 1 8.703394317525834 11.42198611809731 10.695877484055842 0 0 0
214 1 10.336687091147427 12.050851516942938 13.118988764759317 0 0 0
262 1 14.1153940014518 13.244718058256863 11.842982021689338 0 0 0
2144 1 13.841636797208976 15.961591645523804 10.720516425328919 0 0 0
103 1 16.88764019567807 13.55963245345412 11.030160350576766 0 0 0
301 1 19.570684665175026 15.34515477313516 8.412840699354522 0 0 0
1864 1 23.94177360659039 15.377401741873943 10.653838647864852 0 0 0
3537 1 1.4726505152292153 18.23942104229641 10.103389548161015 1 0 0
724 1 6.716780623567655 17.752096093247022 13.347176775369247 0 0 0
2265 1 13.49853676553042 19.052696536768533 3.3685079087615617 0 0 0
337 1 7.944626150102969 18.72929459796417 11.030704309839335 0 0 0
121 1 10.11508746344327 17.14922353957134 10.33508299410186 0 0 1
768 1 0.6935632443919961 9.652902417223874 21.908745438848154 0 0 0
142 1 11.80832833139084 16.965270436410112 12.647426041150352 0 0 0
278 1 15.477583450919052 18.436349191258763 11.57888025028152 0 0 0
1829 1 21.884331121905237 19.768092469721996 8.256613574072693 0 0 -1
638 1 19.348077919835756 17.75896803557947 12.649302950801728 0 0 0
277 1 22.38987168039686 17.722585769643057 12.353942696481118 0 0 0
549 1 9.119570389025014 19.441227184639423 4.783180226009372 0 0 0
90 1 1.5554990491331002 2.3529736038372815 13.634226887087278 0 0 0
38 1 10.68125683536284 1.734341957502517 18.565075016313497 0 0 0
3660 1 8.886095029519133 2.0464606674201176 14.680304571617938 1 0 0
1539 1 10.821146858042383 2.0783054678733834 12.41839439753677 0 1 0
1246 1 6.910673174835755 0.35368625735535103 13.712802329612954 0 1 1
114 1 12.7108474405005 1.070696969694593 16.7879612342259 0 0 0
85 1 14.495810350564641 2.837260477105324 15.723049354089333 0 0 -1
1420 1 19.642189627159148 0.5994303006475673 15.700496678464955 0 1 0
1348 1 17.418423738941396 0.29278942483583115 13.52624366780389 0 1 0
122 1 18.390728073282364 19.033703533755766 0.22649837450822963 0 0 0
216 1 3.9139061394445145 4.699872566994977 16.056921488289976 0 0 0
123 1 6.344378606829812 4.7348265336097155 17.278160316143268 0 0 0
517 1 7.4293258690201265 4.563815156421359 14.844524524300084 0 0 0
54 1 9.604381247307181 5.833820765965113 16.04874879229373 0 0 0
119 1 17.419748784479303 2.5347500790754793 15.626072757202657 0 0 0
1256 1 22.411131354181926 2.6001462977671186 13.121875305053905 0 1 0
1707 1 20.464052776256686 5.0000721412072 15.053776310921135 0 0 0
67 1 24.983619615671874 4.632538184742077 16.157364037995727 0 0 0
273 1 24.228390230126955 4.581330472357106 13.011567497957689 0 0 0
276 1 9.399875565699471 18.314864236254795 21.291839298103035 0 0 0
3368 1 2.606420360284608 8.558899008930103 16.04645826026932 1 0 0
3577 1 3.7986460756807054 6.994431285990991 14.368625924094554 1 0 0
3349 1 6.28142648379372 8.219355670099075 13.773190675421855 1 0 0
2135 1 10.400171436054784 8.494009610290059 16.057356489043535 0 0 0
149 1 12.773291787038868 7.136060097675348 13.206052921643593 0 0 0
1439 1 14.796335478427125 7.477323484849875 15.278889245693392 0 1 0
176 1 16.68013994351089 7.592966772243498 13.045025413476287 0 0 0
338 1 17.69805277473389 6.073684871179602 15.74494419331075 0 0 0
36 1 19.65897442189021 7.813219403288631 16.536557143160632 0 0 0
1659 1 25.363760719449015 8.762395673602658 14.259857196776368 0 0 0
4806 1 3.1243672740620703 11.03870798293153 15.640028463311692 1 1 0
1908 1 7.648003169112374 9.325795964440317 15.852712660139193 0 0 -1
68 1 8.629367266710865 11.681086904548184 15.175552011597304 0 0 0
61 1 14.198335915472242 13.544044661823396 14.939406682007908 0 0 0
1840 1 20.845577866088984 9.666930763179483 14.618172678817771 0 0 -1
104 1 19.20758110540249 12.059166780954223 15.07415899362345 0 0 -1
223 1 22.138040214338886 12.166354138383694 13.115480389184372 0 0 -1
39 1 23.250298867465567 9.738427566868788 15.821245226065873 0 0 0
49 1 14.860146999228013 0.10833628261659665 2.297475480886807 0 0 0
253 1 2.973625871290997 15.474074651089403 15.682580573646261 0 0 0
469 1 5.61520259739959 15.075390320272271 14.374539207978346 0 0 0
59 1 9.389359668332547 13.248683199848315 17.126480680990007 0 0 0
730 1 13.553695535605177 16.046421751674494 15.807142111418152 0 0 0
656 1 16.732096654333734 16.551265070547583 14.916954672960644 0 0 0
310 1 21.576142160092253 14.561731658288114 12.282166645652017 0 0 -1
206 1 21.230819587633448 13.599382108569325 17.203149873598342 0 0 -1
472 1 2.7462362645533642 18.08174674528024 16.48359862891196 0 0 0
153 1 11.39585466069086 14.3640207875503 13.90315862754312 0 0 0
482 1 14.352266434268849 17.954655339040986 14.17828194009575 0 0 0
2217 1 21.543297126845488 14.27939864263256 21.333776494689225 0 0 0
346 1 20.853041645784398 17.099374644006787 20.4439434073042 0 0 -1
2439 1 19.579159511555464 15.342466268312823 14.085716377528707 0 0 -1
2366 1 19.950389101922177 16.5104687574843 16.72369531871991 0 0 -1
91 1 0.3545428426947209 18.48902687325946 2.01040951690793 0 0 0
2833 1 24.414661845122275 14.942899724476476 14.080478988163451 0 0 0
358 1 5.285701885198005 3.0702510887544325 21.171445992093464 0 0 0
1566 1 8.591063168640288 0.4912547474882898 17.205960089191823 0 1 0
414 1 8.16593374462361 2.1583740958998563 20.779312994710235 0 0 0
254 1 12.876055477843964 0.6202424434726346 4.389748440692047 0 0 0
219 1 11.818761301401528 0.12449164178634628 20.763120273480418 0 0 0
175 1 16.429740208286525 0.6908464941220943 18.884044762735275 0 0 0
1572 1 16.017239218961347 1.87219984155614 21.40310128222753 0 1 0
9 1 21.78087797734894 2.3445216372554962 15.947365703799704 0 0 -1
241 1 24.04250798454647 0.6857027542083564 16.695215905751777 0 0 0
1254 1 25.18984918657471 0.5582775928328579 19.276096466871724 0 1 -1
3347 1 1.560303598036566 4.477491370535282 17.453333479493754 1 0 0
161 1 6.562129509155961 2.0823252622295163 18.346024039396635 0 0 0
211 1 9.642696130424193 5.954603816487781 20.13652812822116 0 0 0
83 1 10.813284817357262 4.452075295003664 18.074716919980332 0 0 0
255 1 14.736341450955747 5.891823914760626 19.33193214300496 0 0 0
205 1 13.547995908627836 5.2897549378866895 16.827290029007226 0 0 0
60 1 18.20273547960036 4.312808344724481 17.915116646473273 0 0 0
1535 1 16.8727796822055 4.367731877413113 20.422004417962608 0 1 0
342 1 22.804957158017583 6.562198673404547 15.89586145455234 0 0 0
3274 1 3.872142393760028 8.53287854075487 18.267822988050423 1 0 0
1623 1 7.9479995152058684 6.979786376214923 18.069141022155893 0 1 0
271 1 11.451803433961548 8.04436943028713 20.48208345305461 0 0 0
164 1 11.894935809371509 9.321439968778181 18.110769628235182 0 0 -1
545 1 15.75131978146782 8.634217838094866 19.504619741634816 0 0 0
203 1 14.414489597024687 9.715845717350568 17.223450682084504 0 0 0
323 1 18.63630254098755 8.961328355366698 18.62466728462867 0 0 0
1588 1 21.968635906330977 7.241121557871562 18.41081617561019 0 1 -1
46 1 14.891242215353687 0.9655334303293189 6.433385842596299 0 0 0
21 1 5.925615671440389 11.957854807868642 17.50605076130948 0 0 0
1268 1 3.7307774253609343 11.000682274851687 19.405581253979893 0 1 0
228 1 6.752520502787588 9.284487535066562 18.703105673107714 0 0 0
170 1 10.740920550289404 11.84013983879356 19.21267911509163 0 0 0
150 1 14.2825147313172 13.205290153279066 19.86904912631097 0 0 0
1736 1 15.45916674035335 12.325826984668101 17.480523652042976 0 0 -1
679 1 17.83870216494168 11.44012220414283 17.49086600718507 0 0 -1
73 1 20.515710867376747 11.9754041673242 20.6059144328407 0 0 -1
1691 1 21.391614501749828 10.66954028493042 18.187386936713093 0 0 0
383 1 24.029929635953977 11.936627668263512 18.702397943381477 0 0 0
1916 1 23.811754889418722 9.094195637648532 19.65199682920768 0 0 -1
1385 1 1.8615627241276294 13.051291439473674 16.98794665396988 0 1 -1
795 1 5.360955034130342 19.677873894324705 20.59036576779828 0 0 0
377 1 3.4922223735440583 14.088242910012806 19.48956630675068 0 0 0
3414 1 7.494572838643718 13.352415426662224 19.544350428164556 1 0 0
395 1 5.9541797869899415 12.173700909476201 14.591806459388007 0 0 0
523 1 5.499861383012785 15.281500299580939 17.560551007224248 0 0 0
365 1 10.621025930821766 15.781912300940963 16.61876510131287 0 0 0
1732 1 12.852065918248293 15.3639384874237 18.958173739976612 0 0 0
75 1 15.83219406549129 15.407615842116332 17.266753438278727 0 0 0
2423 1 18.78797824829642 16.2658824514636 18.972949427800312 0 0 0
32 1 18.638584314039814 13.51186332016096 19.021617456164353 0 0 -1
162 1 23.863998672557422 14.94653067287177 17.779267145672474 0 0 0
325 1 2.789361409230576 19.535570619954726 0.4279134104476396 0 0 1
583 1 3.9020575323562205 17.37998841041683 19.126004116001667 0 0 0
3399 1 1.5851850274417243 12.791762413909966 10.775834320666998 1 0 0
319 1 12.197879525334555 18.48410347346161 17.11082594822189 0 0 0
605 1 13.24236888327522 17.899747301358936 19.74750723365902 0 0 0
509 1 19.26424197543471 16.3860507453485 22.937662820771212 0 0 0
210 1 16.135766235186185 17.439845366622137 19.385401754682736 0 0 -1
804 1 22.593388411202046 17.34838021562435 17.073611176693 0 0 0
3183 1 23.063262299990388 19.205581424172475 19.189949107524377 0 1 -1
1430 1 0.9717895994312195 2.8399876223633513 20.49027733504174 0 1 0
3393 1 3.6901577757751483 0.8282627671012668 1.2289407617463322 1 0 0
376 1 24.81596347089411 9.210563101697002 7.644992708896855 0 0 0
789 1 18.795813313057202 18.805463435317883 15.674876779583007 0 0 0
1722 1 25.997823080443055 10.949704241005309 12.926502725582123 0 0 0
409 1 13.227521812203722 1.6066192625882956 22.484190166768308 0 0 0
322 1 21.537129244475352 1.9465765915815856 21.754486372143496 0 0 -1
2029 1 24.098614388872726 1.2905935445885093 21.70913129151991 0 0 -1
180 1 0.5706549516865618 6.245846932779924 22.9704829753072 0 0 -1
1346 1 5.478537514519412 2.768711529379467 0.2920684916713612 0 1 0
31 1 7.630732419873983 0.8689209636110994 23.18080666214425 0 0 -1
1523 1 9.236696326902644 4.200785158688733 22.11573638666288 0 1 0
389 1 13.178169563625199 6.318681068287585 21.768744616660193 0 0 -1
239 1 11.967493829869504 3.9389317508162707 22.927572669096254 0 0 -1
1477 1 17.291300382149487 6.68055430081215 22.11608319734625 0 1 -1
697 1 18.652912245829228 5.143392423645139 0.7660322042740724 0 0 1
1865 1 20.539854679730396 2.7663835050015924 19.007880827788636 0 0 -1
1574 1 22.477477905905825 4.690415573962996 19.426650885328936 0 1 -1
354 1 24.59495441385091 3.7568244859377877 20.92182424144563 0 0 0
245 1 4.0717738979494795 10.30281634661718 22.091849400888126 0 0 -1
2269 1 15.637273042332733 18.163166695385588 1.0844717893895184 0 0 0
3533 1 4.270278109613777 7.104203504393764 22.617564992460146 1 0 0
134 1 6.222272050966891 6.027166445446755 20.898611175433466 0 0 -1
3483 1 7.577471196519886 7.989658506745666 22.765458990595864 1 0 -1
233 1 9.804325262809751 7.174892550810695 2.7407000099098586 0 0 0
287 1 10.401690630874482 10.16893777265202 22.046183920600807 0 0 0
312 1 15.11463779136476 7.5862337203084 23.056390882051204 0 0 -1
3539 1 15.353336624159938 10.297251240220598 21.744703910032417 1 0 0
552 1 19.62970027756809 8.11136537901314 20.99091482312633 0 0 0
428 1 21.587552323291874 6.268978414715559 21.635810636738668 0 0 -1
3132 1 25.440985899881706 6.963690603378765 0.24338979734946486 0 1 0
1683 1 23.64581044576614 7.979698465745275 22.180494661564282 0 0 -1
706 1 13.340433774669345 16.93812681272 22.5317621063506 0 0 0
3460 1 1.30669718004361 13.911524015404577 21.449948180963986 1 0 0
321 1 6.633152122687429 10.770687422942867 23.09829715255727 0 0 0
296 1 8.276165135384295 10.86115187313495 20.588090405725772 0 0 0
4033 1 12.715881448512247 11.804943986344366 21.70998873990759 1 0 -1
18 1 17.41452774012496 11.66133013316228 22.90871810382249 0 0 0
102 1 19.66441895141707 10.177710701722201 22.299441306187045 0 0 0
1983 1 24.607632073250134 11.498274544170705 21.550555727627863 0 0 -1
3552 1 3.676202979516789 12.851458721593518 22.800975003982185 1 0 0
24 1 5.573672975158951 14.543308849366083 21.532023445035367 0 0 0
382 1 7.561015245584366 13.64292299143225 23.44514686202748 0 0 0
513 1 1.5939821872869528 19.244291068039256 14.041402449375955 0 0 -1
285 1 25.877372614678926 2.4040335374665487 7.479098807413169 0 0 0
610 1 6.238937595636051 19.94540772319878 9.369067106255102 0 0 0
299 1 26.11732192908758 0.29296939116242 11.485026787846481 0 0 -1
227 1 0.44455509426245027 15.439793042305187 18.21179211001471 0 0 0
2109 1 14.832580221181773 19.45850247130069 22.302576402587 0 0 -1
4085 1 4.884108552563703 19.75248836785815 17.26852866884808 1 0 0
1489 1 25.360199401286415 0.47973754457253887 0.45088638256421326 0 1 0
1990 1 26.0640252541467 11.598942366521495 17.124571493418888 0 0 0
558 1 8.12153364076489 19.853495295763135 14.190307475411357 0 0 0
747 1 17.25737540697372 19.841166913500544 21.368332975294116 0 0 -1
2426 1 26.09466056960881 29.447113560894483 14.738420777311951 0 0 0
2014 1 24.180023201683312 21.031963004981005 17.090327933656994 0 0 -1
579 1 5.494791223012168 20.67362017392809 1.013572870977638 0 0 0
99 1 9.482166635709351 21.081675479762865 2.0854313687861836 0 0 1
2328 1 12.127844147921293 23.28314037290821 4.260788529436784 0 0 0
504 1 15.434492715082156 22.981382027718816 1.7586001071365533 0 0 0
2267 1 18.20275633463234 21.62599748408526 1.9028312687226334 0 0 0
652 1 20.468262175343675 22.765760400214305 3.3375374939264626 0 0 1
720 1 1.028380671999938 31.061109661105597 3.057216530987383 0 0 0
3377 1 5.524270736790422 23.257838200280457 23.10311797966053 1 0 0
2341 1 6.162597899264163 24.60672576888227 1.7915612803208838 0 0 0
710 1 8.749757345268065 23.793300460292905 1.5543889649993459 0 0 0
1021 1 13.004039574009106 25.8459541019351 1.3396250144268036 0 0 0
555 1 9.582815553767114 24.53994875174373 4.471486333671145 0 0 0
799 1 14.428304606015976 25.97688155445065 22.232319727973774 0 0 -1
578 1 19.09441784313025 24.769826445698474 0.5175963976476774 0 0 1
758 1 21.827937288933335 27.75991216763616 22.51841947038959 0 0 -1
507 1 22.971182075553475 26.34300704099245 0.8722350509586523 0 0 0
2167 1 23.494283100516505 23.50896739923598 1.0630623730712707 0 0 1
447 1 2.3530123452218534 26.366958229344643 1.566590924405211 0 0 0
460 1 3.571704268940199 25.26050298050719 22.71207560663401 0 0 -1
483 1 6.3041941794878165 27.453847926288187 1.2918842035382558 0 0 1
2245 1 7.887191493083908 28.859779447838143 2.917502979182302 0 0 1
873 1 12.442286170290544 27.829793458609615 2.938772614691515 0 0 0
3966 1 12.34378931194068 29.726030013629163 1.0006364068821558 1 0 0
2229 1 17.819471308380166 28.352941116403333 1.116393455027254 0 0 0
2222 1 19.221249283167477 27.119008455223497 22.890214829535473 0 0 -1
764 1 23.78689320453113 28.465567252554237 2.488701479868105 0 0 0
631 1 3.140266440566531 30.269912564379645 1.2815342169933719 0 0 0