
# read in graphite data
read_data data.graphite group graphite extra/atom/types 1
Reading data file ...
  orthogonal box = (0.0000000 0.0000000 0.0000000) to (78.752000 80.136448 10.062000)
  3 by 4 by 1 MPI processor grid
  reading atoms ...
  7264 atoms
  reading velocities ...
  7264 velocities
  read_data CPU = 0.014 seconds

# Insert water
read_data data.Ibeam_MLmW_240K add append shift 0.0 0.0 ${Z_G} group water offset 1 0 0 0 0
read_data data.Ibeam_MLmW_240K add append shift 0.0 0.0 10.062 group water offset 1 0 0 0 0
Reading data file ...
  orthogonal box = (0.0000000 0.0000000 0.0000000) to (78.752000 80.136448 33.883465)
  3 by 4 by 1 MPI processor grid
  reading atoms ...
  2208 atoms
  reading velocities ...
  2208 velocities
  read_data CPU = 0.005 seconds


# Define potential
# CHECK ON THIS %%%%%%%%%%%%
#
pair_style sw
pair_coeff * * MLC_e.sw C mW


# Delete water and ice atoms that are overlapping
#
delete_atoms overlap 2.5 water graphite
System init for delete_atoms ...
Neighbor list info ...
  update every 1 steps, delay 10 steps, check yes
  max neighbors/atom: 2000, page size: 100000
  master list distance cutoff = 6.6747184
  ghost atom cutoff = 6.6747184
  binsize = 3.3373592, bins = 24 25 11
  2 neighbor lists, perpetual/occasional/extra = 1 1 0
  (1) command delete_atoms, occasional, copy from (2)
      attributes: full, newton on
      pair build: copy
      stencil: none
      bin: none
  (2) pair sw, perpetual
      attributes: full, newton on
      pair build: full/bin/atomonly
      stencil: full/bin/3d
      bin: standard
Deleted 98 atoms, new total = 9374

write_data test.${NAME}
write_data test.Ibeam_240K
System init for write_data ...
Neighbor list info ...
  update every 1 steps, delay 10 steps, check yes
  max neighbors/atom: 2000, page size: 100000
  master list distance cutoff = 6.6747184
  ghost atom cutoff = 6.6747184
  binsize = 3.3373592, bins = 24 25 11
  1 neighbor lists, perpetual/occasional/extra = 1 0 0
  (1) pair sw, perpetual
      attributes: full, newton on
      pair build: full/bin/atomonly
      stencil: full/bin/3d
      bin: standard


# Fix graphite atoms in place
#
fix 1 graphite setforce 0.0 0.0 0.0
velocity graphite set 0.0 0.0 0.0
velocity water create ${TEMP} 120598 rot yes dist gaussian
velocity water create 240 120598 rot yes dist gaussian
timestep 5.0

# Define output
#

compute 1 water msd
compute 2 water stress/atom NULL
compute 3 water temp

thermo 100
thermo_style custom step c_3 press vol etotal ke pe c_1[4] density

# Neighbor lists
#
neigh_modify delay 0 every 1 check yes




# Set fixes
#
fix                 2 water momentum 10 linear 1 1 1 rescale
fix                 3 all nve
fix                 4 water temp/csvr ${TEMP} ${TEMP} 500.0 928347
fix                 4 water temp/csvr 240 ${TEMP} 500.0 928347
fix                 4 water temp/csvr 240 240 500.0 928347

# Run 0.25 ns equilibration
#
dump                1 all custom 100 eq.${NAME}.dump id type x y z vx vy vz
dump                1 all custom 100 eq.Ibeam_240K.dump id type x y z vx vy vz
run                 50000
Per MPI rank memory allocation (min/avg/max) = 5.646 | 5.651 | 5.662 Mbytes
Step c_3 Press Volume TotEng KinEng PotEng c_1[4] Density 
       0          240   -862.11562    213835.35   -18872.192    1508.7668   -20380.959            0   0.97264698 
     100    265.90702   -823.13944    213835.35   -19018.205    1671.6321   -20689.837    1.3627621   0.97264698 
     200    260.68542   -324.66913    213835.35   -19195.923    1638.8063    -20834.73    2.5785301   0.97264698 
     300    263.72035   -217.90259    213835.35   -19339.071    1657.8854   -20996.957    3.8809189   0.97264698 
     400    247.07737   -291.56888    213835.35   -19446.636    1553.2589   -20999.895    4.9805593   0.97264698 
     500    255.59593   -497.81182    213835.35   -19491.732    1606.8111   -21098.543    6.0237749   0.97264698 
     600    255.59722   -440.67718    213835.35   -19502.482    1606.8192   -21109.301    6.9110315   0.97264698 
     700    241.94165   -467.24376    213835.35   -19577.687    1520.9731    -21098.66    7.5434671   0.97264698 
     800    252.18395   -268.65587    213835.35   -19606.319    1585.3616    -21191.68    8.1574312   0.97264698 
     900    247.04628   -388.26035    213835.35   -19667.611    1553.0635   -21220.674    8.9749629   0.97264698 
    1000    242.85652   -399.95023    213835.35   -19738.948    1526.7244   -21265.672    9.6974654   0.97264698 
    1100     247.0287   -267.60351    213835.35   -19749.032     1552.953   -21301.985    10.503889   0.97264698 
    1200    237.27271   -471.57877    213835.35   -19776.692    1491.6216   -21268.314    11.066207   0.97264698 
    1300    242.35908   -373.74864    213835.35   -19742.697    1523.5972   -21266.294     11.55781   0.97264698 
    1400    243.08782   -179.45842    213835.35   -19791.539    1528.1785   -21319.718      12.2759   0.97264698 
    1500    238.35469   -344.49083    213835.35   -19824.554    1498.4235   -21322.977    12.728187   0.97264698 
    1600    247.20995   -272.97769    213835.35     -19809.4    1554.0924   -21363.492    13.375003   0.97264698 
    1700    237.75344   -384.11367    213835.35   -19834.302    1494.6438   -21328.946    13.955225   0.97264698 
    1800    244.23974   -386.62012    213835.35   -19812.759      1535.42   -21348.179    14.596613   0.97264698 
    1900    249.76533   -157.09777    213835.35   -19777.857    1570.1568   -21348.013    15.131372   0.97264698 
    2000     248.1032   -408.51636    213835.35   -19766.177    1559.7078   -21325.885    15.719903   0.97264698 
    2100     239.6261   -235.57079    213835.35   -19858.517    1506.4163   -21364.933    16.309228   0.97264698 
    2200    242.28208   -535.69936    213835.35   -19815.272    1523.1132   -21338.385    16.986911   0.97264698 
    2300    239.76764   -283.86591    213835.35   -19809.223    1507.3061   -21316.529    17.730901   0.97264698 
    2400    242.44079   -513.53818    213835.35   -19830.282    1524.1109   -21354.393    18.092423   0.97264698 
    2500    240.12571   -302.47732    213835.35   -19860.783    1509.5571    -21370.34      18.7837   0.97264698 
    2600    242.88048   -224.04139    213835.35   -19888.214     1526.875   -21415.089    19.260979   0.97264698 
    2700    238.57679   -464.04091    213835.35    -19873.55    1499.8198    -21373.37    19.788263   0.97264698 
    2800    249.05438   -411.81392    213835.35   -19824.546    1565.6875   -21390.234    20.249742   0.97264698 
    2900    248.54524   -181.87686    213835.35   -19848.498    1562.4867   -21410.985    20.878001   0.97264698 
    3000    246.70579   -298.24162    213835.35   -19848.212    1550.9229   -21399.135    21.748546   0.97264698 
    3100    247.99057   -456.43612    213835.35   -19858.736    1558.9997   -21417.735    22.370933   0.97264698 
    3200    246.96102   -205.84481    213835.35   -19938.976    1552.5275   -21491.503    22.831843   0.97264698 
    3300    236.83899   -437.22726    213835.35   -20026.737     1488.895   -21515.632    23.168896   0.97264698 
    3400    238.76342     -230.443    213835.35   -19968.686     1500.993   -21469.679    23.451401   0.97264698 
    3500    239.57344   -391.68598    213835.35   -19969.002    1506.0852   -21475.087    23.908312   0.97264698 
    3600    242.24151   -408.20295    213835.35   -19965.134    1522.8582   -21487.992    24.375633   0.97264698 
    3700    244.22744   -324.32208    213835.35   -19941.992    1535.3428   -21477.335    24.421752   0.97264698 
    3800    248.21093   -240.34568    213835.35   -19941.791    1560.3851   -21502.176    24.542587   0.97264698 
    3900    238.12629   -317.61268    213835.35   -19948.351    1496.9877   -21445.338    25.054471   0.97264698 
    4000    238.52581   -148.03394    213835.35   -19973.409    1499.4993   -21472.909    25.463073   0.97264698 
    4100    240.63889     -330.379    213835.35   -19960.282    1512.7832   -21473.065    25.443082   0.97264698 
    4200    240.27898     -590.899    213835.35   -19956.758    1510.5206   -21467.278    25.631712   0.97264698 
    4300    238.75251   -437.39802    213835.35   -20005.896    1500.9244    -21506.82     25.62079   0.97264698 
    4400    233.89968   -422.79914    213835.35   -19949.988     1470.417   -21420.405    26.091184   0.97264698 
    4500    228.81129    -371.8035    213835.35   -19968.685    1438.4286   -21407.114    26.244013   0.97264698 
    4600    238.26953   -451.69006    213835.35   -20000.409    1497.8882   -21498.297    26.642957   0.97264698 
    4700    242.98551   -323.34189    213835.35   -19936.896    1527.5353   -21464.432    26.879587   0.97264698 
    4800    245.02528   -364.32619    213835.35   -19894.654    1540.3584   -21435.013    26.892621   0.97264698 
    4900    250.48327   -347.27013    213835.35    -19845.58    1574.6702    -21420.25    26.812549   0.97264698 
    5000    238.76318   -459.27538    213835.35   -19883.229    1500.9915   -21384.221    27.190081   0.97264698 
    5100     247.7207   -161.23089    213835.35   -19853.965    1557.3032   -21411.269    27.616024   0.97264698 
    5200     244.8897   -215.98903    213835.35   -19886.938     1539.506   -21426.444    28.284217   0.97264698 
    5300    241.79889   -179.36594    213835.35   -19955.255    1520.0756   -21475.331    28.654764   0.97264698 
    5400    238.98593   -414.44665    213835.35   -19945.625    1502.3919   -21448.017    28.723907   0.97264698 
    5500    233.98052   -220.10872    213835.35   -19934.849    1470.9252   -21405.774    28.548644   0.97264698 
    5600    236.47723   -297.36298    213835.35   -19966.035    1486.6208   -21452.656    28.710847   0.97264698 
    5700    237.55403   -244.20487    213835.35   -19952.125    1493.3901   -21445.515    28.618856   0.97264698 
    5800    242.33444   -437.64802    213835.35   -19942.597    1523.4423   -21466.039    29.011551   0.97264698 
    5900    240.82185   -450.06183    213835.35   -19979.226    1513.9334    -21493.16    29.421176   0.97264698 
    6000    237.84172    -325.2871    213835.35   -19994.152    1495.1987   -21489.351    29.783042   0.97264698 
    6100    234.10077   -362.12273    213835.35   -19998.795    1471.6812   -21470.476     29.86154   0.97264698 
    6200    244.13546   -277.58753    213835.35   -19990.025    1534.7645    -21524.79    29.808429   0.97264698 
    6300    241.56996   -237.77492    213835.35   -19933.234    1518.6364    -21451.87    30.491505   0.97264698 
    6400    232.88193   -425.33755    213835.35   -19964.699    1464.0188   -21428.717    31.460626   0.97264698 
    6500    244.59233   -125.31906    213835.35    -19980.22    1537.6366   -21517.857    32.242276   0.97264698 
    6600    240.68053   -438.57481    213835.35   -19995.177     1513.045   -21508.222    32.480619   0.97264698 
    6700    240.31328   -273.54825    213835.35   -20021.756    1510.7362   -21532.492    32.845516   0.97264698 
    6800    234.60279   -357.97132    213835.35   -20017.141    1474.8371   -21491.978    33.333892   0.97264698 
    6900     244.4401   -267.67521    213835.35   -19985.288    1536.6796   -21521.968    33.706143   0.97264698 
    7000    242.59716   -321.49347    213835.35    -19991.03    1525.0939   -21516.123    34.279973   0.97264698 
    7100    240.17869   -415.73964    213835.35   -20009.019    1509.8901   -21518.909    34.582904   0.97264698 
    7200    236.33275   -290.15448    213835.35   -20062.107    1485.7126   -21547.819    35.365102   0.97264698 
    7300    241.41252   -190.01011    213835.35   -20104.008    1517.6467   -21621.655    36.017522   0.97264698 
    7400    233.35084   -550.37696    213835.35   -20079.963    1466.9667    -21546.93    36.506247   0.97264698 
    7500    234.07518   -296.10696    213835.35   -20036.371    1471.5203   -21507.891     37.12098   0.97264698 
    7600    242.76503   -238.92472    213835.35   -19991.378    1526.1492   -21517.527    37.445579   0.97264698 
    7700    237.72964   -401.15877    213835.35   -20010.999    1494.4941   -21505.493    37.825098   0.97264698 
    7800    236.54604   -265.21129    213835.35   -20070.238    1487.0534   -21557.291    38.273053   0.97264698 
    7900    240.55217   -386.85036    213835.35       -20034    1512.2381   -21546.238    38.116003   0.97264698 
    8000    246.12798   -349.95422    213835.35   -19981.698    1547.2905   -21528.989    38.381887   0.97264698 
    8100    241.12797    -270.9985    213835.35    -19962.91    1515.8578   -21478.767    38.201972   0.97264698 
    8200    242.30219   -220.57152    213835.35   -19978.163    1523.2396   -21501.403    38.218354   0.97264698 
    8300    245.17411   -320.65211    213835.35   -19948.278     1541.294   -21489.572    38.757778   0.97264698 
    8400    241.21849   -460.19716    213835.35   -19933.535    1516.4269   -21449.962     39.03555   0.97264698 
    8500    242.13376    -465.7927    213835.35   -19971.213    1522.1808   -21493.394    39.529663   0.97264698 
    8600    240.61254   -306.33483    213835.35   -19977.949    1512.6176   -21490.566    39.799297   0.97264698 
    8700    235.61438   -402.77532    213835.35   -20004.804    1481.1965   -21486.001    40.199537   0.97264698 
    8800    233.36431   -331.38505    213835.35   -19996.044    1467.0514   -21463.095     40.52853   0.97264698 
    8900    238.27853   -397.11449    213835.35   -20001.066    1497.9448   -21499.011    41.116851   0.97264698 
    9000    239.61044    -391.0505    213835.35   -19973.348    1506.3178   -21479.666    41.470718   0.97264698 
    9100    236.35407    -333.7996    213835.35   -19987.419    1485.8466   -21473.265    41.660891   0.97264698 
    9200    244.82354   -374.04262    213835.35   -19939.654    1539.0901   -21478.744     42.08414   0.97264698 
    9300    233.85731   -384.80324    213835.35   -20001.873    1470.1506   -21472.024    42.477414   0.97264698 
    9400    241.04658   -224.48273    213835.35   -19998.153    1515.3462     -21513.5    42.838581   0.97264698 
    9500    237.10097   -427.45451    213835.35   -20029.829     1490.542   -21520.371    43.005606   0.97264698 
    9600    242.97873   -480.77668    213835.35   -20024.955    1527.4927   -21552.448    43.217304   0.97264698 
    9700    235.14305   -327.47939    213835.35   -19993.059    1478.2335   -21471.292    43.519163   0.97264698 
    9800    241.75956   -474.91631    213835.35   -19959.093    1519.8283   -21478.921     43.66391   0.97264698 
    9900    238.28212   -450.19524    213835.35   -19978.534    1497.9673   -21476.501    43.600584   0.97264698 
   10000    237.14173   -410.59215    213835.35   -19990.904    1490.7982   -21481.702    44.319929   0.97264698 
   10100    244.91422   -334.94552    213835.35   -19969.136    1539.6602   -21508.796    44.753853   0.97264698 
   10200    243.28747   -347.49129    213835.35   -19916.078    1529.4336   -21445.512    44.398011   0.97264698 
   10300    246.68893   -545.14764    213835.35   -19921.972     1550.817   -21472.789    44.495565   0.97264698 
   10400    243.30048   -472.22894    213835.35    -19921.55    1529.5154   -21451.066      44.8654   0.97264698 
   10500    243.88217   -290.33028    213835.35   -19973.529    1533.1722   -21506.701    45.598604   0.97264698 
   10600    236.25906   -349.32465    213835.35   -20013.076    1485.2493   -21498.325    46.029579   0.97264698 
   10700    239.87242   -327.05479    213835.35   -20027.817    1507.9648   -21535.782    46.052322   0.97264698 
   10800    233.00813   -462.35654    213835.35    -20067.04    1464.8122   -21531.853    46.232608   0.97264698 
   10900    235.13686   -366.54182    213835.35   -20076.665    1478.1945   -21554.859    46.585186   0.97264698 
   11000     234.4369   -342.10065    213835.35   -20067.806    1473.7942     -21541.6    46.581302   0.97264698 
   11100    237.56887   -475.78778    213835.35   -20024.649    1493.4834   -21518.132    46.534195   0.97264698 
   11200    234.86666   -221.99633    213835.35   -20062.364     1476.496    -21538.86    46.842577   0.97264698 
   11300    236.92505   -304.80253    213835.35   -20059.996    1489.4361   -21549.432    46.909438   0.97264698 
   11400    227.99842   -314.11815    213835.35   -20038.316    1433.3186   -21471.634    47.179441   0.97264698 
   11500    243.27209   -321.36953    213835.35   -19985.244    1529.3369   -21514.581    47.205129   0.97264698 
   11600    239.17869   -425.39986    213835.35   -19940.811    1503.6036   -21444.415    47.425103   0.97264698 
   11700    248.25062   -197.09361    213835.35   -19896.782    1560.6346   -21457.416     47.89278   0.97264698 
   11800    245.54713   -423.07893    213835.35   -19911.741     1543.639    -21455.38    48.750805   0.97264698 
   11900    241.63448   -603.40457    213835.35   -19936.155     1519.042   -21455.197    48.669092   0.97264698 
   12000    239.83746   -447.52779    213835.35   -19914.776     1507.745   -21422.521    48.585503   0.97264698 
   12100    235.50335   -245.74057    213835.35   -19952.765    1480.4985   -21433.263    48.129127   0.97264698 
   12200    247.14845   -296.92229    213835.35   -19941.187    1553.7058   -21494.892    48.320333   0.97264698 
   12300     239.5106   -225.57574    213835.35   -20024.468    1505.6902   -21530.158    48.667339   0.97264698 
   12400    242.02103   -287.98306    213835.35   -19988.391    1521.4721   -21509.863    49.227085   0.97264698 
   12500    239.93684   -385.02181    213835.35   -19965.083    1508.3698   -21473.452    49.369336   0.97264698 
   12600    240.83488   -262.18437    213835.35   -19943.013    1514.0153   -21457.028    49.360432   0.97264698 
   12700    237.28498   -384.32418    213835.35   -19944.264    1491.6988   -21435.963    49.401957   0.97264698 
   12800    240.43256   -453.59874    213835.35   -19945.785    1511.4861   -21457.271      49.5551   0.97264698 
   12900    240.45837   -398.44675    213835.35   -19972.669    1511.6484   -21484.317     49.76689   0.97264698 
   13000    244.54872   -445.58133    213835.35    -19970.76    1537.3625   -21508.122    50.129162   0.97264698 
   13100        239.6   -342.92755    213835.35   -19981.146    1506.2522   -21487.398    50.528308   0.97264698 
   13200    242.82871   -370.59758    213835.35   -20002.215    1526.5496   -21528.764    51.439916   0.97264698 
   13300    235.83396   -501.51229    213835.35   -20023.561    1482.5769   -21506.138    52.069823   0.97264698 
   13400    232.39938   -470.13734    213835.35   -20075.895    1460.9853    -21536.88    52.468073   0.97264698 
   13500    239.17545   -316.47189    213835.35   -20012.413    1503.5833   -21515.996    52.513131   0.97264698 
   13600    236.38761   -275.14309    213835.35   -20032.474    1486.0574   -21518.531    52.478435   0.97264698 
   13700    236.68466   -487.06353    213835.35   -20032.606    1487.9248   -21520.531    52.661566   0.97264698 
   13800    239.17094   -149.83048    213835.35   -19989.408    1503.5549   -21492.963    53.283351   0.97264698 
   13900    238.27098   -226.43507    213835.35   -20000.713    1497.8973    -21498.61    53.448735   0.97264698 
   14000    242.79626    -159.9998    213835.35   -19928.926    1526.3456   -21455.272     54.03826   0.97264698 
   14100    239.89223   -481.71909    213835.35   -19961.906    1508.0893   -21469.996    54.072649   0.97264698 
   14200    240.73309   -489.63252    213835.35   -19963.549    1513.3754   -21476.924    54.019509   0.97264698 
   14300    241.81154   -283.23384    213835.35    -20004.47    1520.1551   -21524.625    54.284194   0.97264698 
   14400    237.99147   -321.25562    213835.35   -20046.477    1496.1401   -21542.617    54.053708   0.97264698 
   14500    235.59304   -515.12805    213835.35    -20063.86    1481.0623   -21544.922    54.599019   0.97264698 
   14600    237.38346    -444.6258    213835.35   -20041.857    1492.3178   -21534.175    54.739575   0.97264698 
   14700    236.09484   -375.63415    213835.35   -20041.804    1484.2169   -21526.021    54.712766   0.97264698 
   14800     239.9792   -368.57394    213835.35   -20003.994    1508.6361    -21512.63    54.999137   0.97264698 
   14900     239.6123   -565.22288    213835.35    -20055.12    1506.3295    -21561.45    55.148787   0.97264698 
   15000    237.70486   -268.99266    213835.35   -20063.321    1494.3384    -21557.66     55.40149   0.97264698 
   15100    244.33192    -333.6233    213835.35   -20066.073    1535.9996   -21602.073    55.867263   0.97264698 
   15200     236.4067   -558.48398    213835.35   -20035.911    1486.1774   -21522.088    56.384657   0.97264698 
   15300    240.13369   -372.88591    213835.35   -20078.947    1509.6073   -21588.555    57.015624   0.97264698 
   15400    237.49372   -345.72369    213835.35   -20105.637     1493.011   -21598.648    57.413632   0.97264698 
   15500    241.86356   -396.43027    213835.35   -20047.585    1520.4821   -21568.067    57.794604   0.97264698 
   15600    245.34597   -433.67979    213835.35   -19977.644    1542.3744   -21520.018     57.79484   0.97264698 
   15700    248.96538   -273.14835    213835.35   -19964.087    1565.1279   -21529.215    58.174394   0.97264698 
   15800    241.74945   -340.35271    213835.35   -19991.276    1519.7648   -21511.041    58.285694   0.97264698 
   15900    246.08254   -273.69072    213835.35   -19987.224    1547.0049   -21534.229    58.116875   0.97264698 
   16000    247.30548   -438.08361    213835.35   -20013.609    1554.6929   -21568.302    58.477031   0.97264698 
   16100     243.1914   -511.46904    213835.35   -20039.981    1528.8296    -21568.81    58.986029   0.97264698 
   16200    243.46583   -309.98688    213835.35   -20005.435    1530.5548    -21535.99     58.99535   0.97264698 
   16300    245.88437   -410.51329    213835.35   -20019.347    1545.7591   -21565.106    59.137434   0.97264698 
   16400    244.02623   -487.44826    213835.35   -20035.644    1534.0778   -21569.722    59.382512   0.97264698 
   16500    242.98552   -276.55236    213835.35   -19991.532    1527.5354   -21519.068     59.81542   0.97264698 
   16600    247.46861   -524.46119    213835.35   -19971.015    1555.7184   -21526.733     60.48115   0.97264698 
   16700    245.06035   -352.20064    213835.35   -19985.024    1540.5789   -21525.603    60.872542   0.97264698 
   16800    237.46043   -452.42026    213835.35   -20020.368    1492.8017    -21513.17     61.54831   0.97264698 
   16900    242.97967   -477.34097    213835.35   -20045.991    1527.4986    -21573.49    62.026785   0.97264698 
   17000    233.05265   -288.54425    213835.35   -20068.183    1465.0921   -21533.275    62.475241   0.97264698 
   17100    237.68607   -446.61382    213835.35   -20024.653    1494.2202   -21518.873    62.577353   0.97264698 
   17200     241.0633   -516.77684    213835.35   -20043.497    1515.4513   -21558.948    62.747799   0.97264698 
   17300    231.54305    -357.6822    213835.35   -20061.704     1455.602   -21517.306     62.47028   0.97264698 
   17400    236.47455   -237.34029    213835.35   -20103.069     1486.604   -21589.673    62.665787   0.97264698 
   17500    238.62036   -326.46077    213835.35   -20055.044    1500.0937   -21555.138    62.742416   0.97264698 
   17600    235.64215   -185.66171    213835.35   -20037.884    1481.3711   -21519.255    63.153084   0.97264698 
   17700    241.49146     -357.964    213835.35   -20032.085    1518.1429   -21550.228    63.796727   0.97264698 
   17800    235.93826   -447.85165    213835.35   -20062.972    1483.2326   -21546.204    64.633092   0.97264698 
   17900    245.03069   -357.47134    213835.35   -19989.538    1540.3924    -21529.93    64.854329   0.97264698 
   18000    244.46969   -460.73668    213835.35   -20018.981    1536.8656   -21555.846    64.854765   0.97264698 
   18100    243.20501   -328.24707    213835.35   -19990.559    1528.9152   -21519.474    65.006849   0.97264698 
   18200    240.33083   -447.41406    213835.35   -20021.496    1510.8466   -21532.343     65.37805   0.97264698 
   18300    239.21767   -395.06739    213835.35   -19986.382    1503.8487    -21490.23     66.02628   0.97264698 
   18400    244.45454    -385.9069    213835.35   -20015.111    1536.7704   -21551.882    66.375469   0.97264698 
   18500    238.76712   -383.59436    213835.35   -20037.698    1501.0163   -21538.715    66.576668   0.97264698 
   18600    241.89284   -360.31431    213835.35   -20002.998    1520.6662   -21523.664    66.310526   0.97264698 
   18700    241.67499   -325.19734    213835.35   -20017.486    1519.2967   -21536.782    66.395879   0.97264698 
   18800    238.14591   -286.41148    213835.35   -20057.658     1497.111   -21554.769    66.338616   0.97264698 
   18900     242.6146   -311.15448    213835.35    -20039.02    1525.2036   -21564.223    66.719958   0.97264698 
   19000    238.65689   -347.53223    213835.35   -19999.642    1500.3233   -21499.966    66.946339   0.97264698 
   19100    242.66539   -675.18177    213835.35   -19985.091    1525.5229   -21510.614    67.409779   0.97264698 
   19200    241.99452   -415.18084    213835.35   -19987.362    1521.3054   -21508.667    67.669795   0.97264698 
   19300    242.91915   -306.61928    213835.35   -19929.867    1527.1182   -21456.985    67.669479   0.97264698 
   19400    241.02047   -349.85923    213835.35   -19937.163     1515.182   -21452.345    67.739667   0.97264698 
   19500     241.9701   -294.76758    213835.35   -19948.796    1521.1519   -21469.948    67.698577   0.97264698 
   19600    247.01669   -289.14701    213835.35   -19954.226    1552.8774   -21507.104    67.699815   0.97264698 
   19700     243.3172    -499.8396    213835.35   -19925.805    1529.6205   -21455.425    68.709715   0.97264698 
   19800    239.42466   -316.36046    213835.35   -19934.622    1505.1499   -21439.772    68.522491   0.97264698 
   19900    242.71036   -183.17406    213835.35   -19926.353    1525.8055   -21452.159    69.176545   0.97264698 
   20000    238.18641   -578.86897    213835.35   -19963.533    1497.3656   -21460.898    69.717643   0.97264698 
   20100    237.29746   -327.11824    213835.35   -20002.565    1491.7772   -21494.342    70.692527   0.97264698 
   20200    239.49647   -319.26182    213835.35   -20006.484    1505.6013   -21512.086    70.646651   0.97264698 
   20300    247.11275    -283.1718    213835.35   -19960.474    1553.4813   -21513.955    70.656648   0.97264698 
   20400    234.90418   -432.22469    213835.35   -19937.066    1476.7318   -21413.798    70.872361   0.97264698 
   20500    237.74677   -470.04248    213835.35   -20008.733    1494.6018   -21503.335    70.883002   0.97264698 
   20600    239.74353   -364.70849    213835.35   -20018.398    1507.1545   -21525.553    71.000469   0.97264698 
   20700    241.12073   -439.27906    213835.35   -20010.041    1515.8123   -21525.853    70.852753   0.97264698 
   20800    242.02076   -381.16626    213835.35   -19969.639    1521.4704    -21491.11    71.065743   0.97264698 
   20900    241.41247    -346.1825    213835.35   -19948.831    1517.6463   -21466.477    72.040476   0.97264698 
   21000    241.83107   -359.58877    213835.35   -19985.959    1520.2779   -21506.237    72.187422   0.97264698 
   21100    246.28038   -435.34298    213835.35   -19952.883    1548.2486   -21501.132    72.307889   0.97264698 
   21200    241.88855   -334.60995    213835.35   -19967.248    1520.6392   -21487.888    72.602562   0.97264698 
   21300    245.84708   -368.76569    213835.35   -19948.026    1545.5247   -21493.551    72.947617   0.97264698 
   21400    239.05838   -418.82579    213835.35   -19987.807    1502.8473   -21490.654    73.064306   0.97264698 
   21500    242.65935   -367.39672    213835.35   -19969.649    1525.4849   -21495.134     73.44097   0.97264698 
   21600    249.30341   -407.89142    213835.35    -19916.53     1567.253   -21483.783    73.944844   0.97264698 
   21700    244.15209   -512.84437    213835.35   -19989.268     1534.869   -21524.137    73.666132   0.97264698 
   21800    239.10456   -257.14943    213835.35   -20000.516    1503.1376   -21503.654    74.113058   0.97264698 
   21900    237.00654   -124.63053    213835.35   -20010.144    1489.9483   -21500.092    74.367739   0.97264698 
   22000    238.02275   -576.50243    213835.35   -20032.702    1496.3368   -21529.039    75.226786   0.97264698 
   22100    239.63637   -369.79735    213835.35   -20008.279    1506.4809    -21514.76    75.460553   0.97264698 
   22200    235.31286   -321.13775    213835.35   -20082.802     1479.301   -21562.103    75.950563   0.97264698 
   22300    237.37441   -448.59598    213835.35   -20047.012     1492.261   -21539.272    76.500724   0.97264698 
   22400    233.13066   -344.58147    213835.35   -19987.445    1465.5825   -21453.028    76.895565   0.97264698 
   22500      239.981   -394.31116    213835.35   -19983.883    1508.6473   -21492.531    77.239094   0.97264698 
   22600    236.57014   -292.02003    213835.35   -19989.671    1487.2049   -21476.876    77.920063   0.97264698 
   22700    241.03613   -355.39286    213835.35    -20027.13    1515.2805   -21542.411    78.066091   0.97264698 
   22800    245.49109   -371.59699    213835.35   -19968.611    1543.2867   -21511.897    77.741893   0.97264698 
   22900    235.77652   -357.66166    213835.35    -20003.12    1482.2158   -21485.336     77.60303   0.97264698 
   23000     230.0711   -323.43838    213835.35   -20009.427    1446.3485   -21455.775    78.022098   0.97264698 
   23100    240.28314   -448.58699    213835.35   -19963.925    1510.5468   -21474.472     78.08905   0.97264698 
   23200    243.36549   -313.19914    213835.35   -19952.763    1529.9241   -21482.687     78.04211   0.97264698 
   23300     244.4291   -230.05685    213835.35   -19951.297    1536.6105   -21487.908     77.96231   0.97264698 
   23400    241.84317   -364.76502    213835.35   -19948.626     1520.354    -21468.98      78.3224   0.97264698 
   23500     244.8126   -322.53378    213835.35   -19925.985    1539.0214   -21465.006    78.803235   0.97264698 
   23600    245.40918   -232.66558    213835.35   -19889.141    1542.7718   -21431.913    79.184648   0.97264698 
   23700    248.96997   -195.29989    213835.35   -19902.235    1565.1568   -21467.392    79.612141   0.97264698 
   23800    239.09373   -449.68611    213835.35   -19907.433    1503.0695   -21410.502    80.210276   0.97264698 
   23900    238.90589   -438.36018    213835.35   -19965.411    1501.8886     -21467.3    80.635508   0.97264698 
   24000     239.6487   -211.36028    213835.35   -19941.713    1506.5583   -21448.271    80.896722   0.97264698 
   24100    235.90684   -379.85543    213835.35   -19928.054    1483.0351   -21411.089    81.299125   0.97264698 
   24200    235.90527   -253.25135    213835.35   -19937.369    1483.0252   -21420.394    81.756071   0.97264698 
   24300     232.3517    -579.6439    213835.35   -19974.268    1460.6856   -21434.954    82.172562   0.97264698 
   24400    238.28182   -285.06262    213835.35   -19972.654    1497.9654   -21470.619    82.628768   0.97264698 
   24500    240.62341   -360.39348    213835.35   -19972.111    1512.6859   -21484.797    82.418259   0.97264698 
   24600    233.55309   -519.46548    213835.35   -19993.158    1468.2381   -21461.397    82.436282   0.97264698 
   24700    237.75574   -305.38152    213835.35     -19996.8    1494.6582   -21491.458    82.428752   0.97264698 
   24800    232.50196   -445.73003    213835.35   -19984.629    1461.6302    -21446.26    83.303674   0.97264698 
   24900     237.9995   -451.59005    213835.35   -19993.812    1496.1906   -21490.003    83.414404   0.97264698 
   25000    239.63689   -378.45382    213835.35   -19989.568    1506.4841   -21496.052    83.692613   0.97264698 
   25100    232.19752   -557.11776    213835.35   -20009.711    1459.7163   -21469.427    84.037723   0.97264698 
   25200    231.59444   -243.14831    213835.35   -20069.536     1455.925   -21525.461    84.167764   0.97264698 
   25300    233.55265   -451.94134    213835.35   -20033.165    1468.2353   -21501.401    84.943544   0.97264698 
   25400    233.41801   -417.76218    213835.35   -19978.326     1467.389   -21445.715    85.372278   0.97264698 
   25500    242.93061   -307.29197    213835.35    -19938.68    1527.1902    -21465.87     85.92265   0.97264698 
   25600    244.80521   -309.19369    213835.35   -19844.938    1538.9749   -21383.913    86.445348   0.97264698 
   25700    237.34638    -547.9527    213835.35   -19900.581    1492.0847   -21392.665    86.514184   0.97264698 
   25800    245.90702   -381.19876    213835.35   -19862.942    1545.9015   -21408.844    86.976611   0.97264698 
   25900    245.26173   -320.14146    213835.35   -19846.741    1541.8448   -21388.586    87.601032   0.97264698 
   26000    241.97566   -373.02257    213835.35    -19887.37    1521.1869   -21408.557    88.026854   0.97264698 
   26100    240.88381   -195.29144    213835.35   -19875.919    1514.3229   -21390.242    88.683006   0.97264698 
   26200    235.61648   -545.14741    213835.35   -19901.141    1481.2097   -21382.351    89.126468   0.97264698 
   26300    236.10528   -288.11492    213835.35    -19937.98    1484.2825   -21422.263    89.626041   0.97264698 
   26400    236.66925   -381.92652    213835.35   -19939.885     1487.828   -21427.713    89.843078   0.97264698 
   26500    238.66297   -456.32503    213835.35   -19907.331    1500.3615   -21407.693    90.100689   0.97264698 
   26600    254.19074   -377.13142    213835.35   -19872.924    1597.9773   -21470.902     90.71169   0.97264698 
   26700    241.85512   -266.37855    213835.35   -19851.356    1520.4291   -21371.785    90.888557   0.97264698 
   26800    238.86956   -427.48117    213835.35   -19880.895    1501.6602   -21382.555    91.237078   0.97264698 
   26900    248.77988   -412.01621    213835.35   -19841.667    1563.9618   -21405.629    91.546551   0.97264698 
   27000    245.29517   -321.96389    213835.35   -19838.648     1542.055   -21380.703    92.211328   0.97264698 
   27100     243.4722   -302.64149    213835.35   -19870.549    1530.5949   -21401.144    92.877779   0.97264698 
   27200    241.44185   -271.61987    213835.35   -19884.521     1517.831   -21402.352    92.948008   0.97264698 
   27300     247.5055   -370.92275    213835.35   -19856.536    1555.9504   -21412.486    93.341728   0.97264698 
   27400    245.10228   -466.22689    213835.35   -19885.291    1540.8425   -21426.134    93.311196   0.97264698 
   27500    248.59689   -329.44548    213835.35   -19965.019    1562.8114    -21527.83    93.321129   0.97264698 
   27600    232.68032    -522.9019    213835.35   -20020.369    1462.7514    -21483.12    93.771154   0.97264698 
   27700    236.55417   -294.71004    213835.35   -19987.319    1487.1045   -21474.424    94.007451   0.97264698 
   27800    239.87571   -397.91089    213835.35   -19945.817    1507.9854   -21453.802    94.414434   0.97264698 
   27900    244.42837    -458.2615    213835.35   -19996.596    1536.6059   -21533.202    94.279027   0.97264698 
   28000    234.28498   -254.03062    213835.35   -20025.318    1472.8392   -21498.158    94.597434   0.97264698 
   28100    243.13519   -262.32957    213835.35   -20019.013    1528.4763   -21547.489    94.717195   0.97264698 
   28200    241.70108   -406.09075    213835.35   -20017.766    1519.4607   -21537.226     94.96992   0.97264698 
   28300    235.17036   -313.19647    213835.35   -20007.821    1478.4052   -21486.226    95.042517   0.97264698 
   28400    241.76004   -471.59029    213835.35   -19989.444    1519.8314   -21509.276    95.492994   0.97264698 
   28500    235.36982   -342.88778    213835.35   -19998.768    1479.6591   -21478.427    95.762717   0.97264698 
   28600     238.7515    -345.3614    213835.35   -20016.217    1500.9181   -21517.135    96.214845   0.97264698 
   28700    244.62493   -324.62349    213835.35   -20000.301    1537.8416   -21538.142    96.539724   0.97264698 
   28800    242.24502   -398.73971    213835.35   -20030.852    1522.8802   -21553.732    96.926361   0.97264698 
   28900    238.20031   -296.14402    213835.35   -20018.771     1497.453   -21516.224    97.830603   0.97264698 
   29000    244.27926   -360.43186    213835.35   -19996.909    1535.6685   -21532.578    98.213782   0.97264698 
   29100    239.57569   -610.06972    213835.35   -19971.809    1506.0994   -21477.909    98.508897   0.97264698 
   29200    242.17488   -264.52212    213835.35   -19947.999    1522.4393   -21470.438    97.804423   0.97264698 
   29300    249.96412    -251.7472    213835.35   -19958.824    1571.4065    -21530.23    98.381397   0.97264698 
   29400    240.30848   -378.20028    213835.35   -19968.788    1510.7061   -21479.494    98.280851   0.97264698 
   29500     243.6396   -474.07577    213835.35   -19962.929    1531.6473   -21494.576    98.993666   0.97264698 
   29600    240.25441   -345.90274    213835.35   -19957.293    1510.3662   -21467.659    99.122624   0.97264698 
   29700    249.41979   -353.87309    213835.35   -19950.128    1567.9846   -21518.113    99.208068   0.97264698 
   29800    238.74054   -335.42395    213835.35   -20019.736    1500.8492   -21520.585    99.587686   0.97264698 
   29900    229.85549   -481.54952    213835.35   -20008.929    1444.9931   -21453.922    99.649618   0.97264698 
   30000    227.71983   -437.66796    213835.35   -20055.069    1431.5672   -21486.636    99.859314   0.97264698 
   30100    233.94796    -380.7956    213835.35   -20042.292    1470.7205   -21513.012    100.29624   0.97264698 
   30200    231.02734   -559.62747    213835.35   -20023.419      1452.36   -21475.779    100.05935   0.97264698 
   30300    245.81755   -164.22722    213835.35   -20037.387     1545.339   -21582.726    100.18806   0.97264698 
   30400    244.30583   -213.16583    213835.35   -20016.134    1535.8355   -21551.969    100.58713   0.97264698 
   30500    235.06414    -615.6438    213835.35   -20084.077    1477.7374   -21561.815    101.25625   0.97264698 
   30600    233.81131   -560.16225    213835.35   -20050.963    1469.8614   -21520.824    101.77984   0.97264698 
   30700    231.74455   -524.72555    213835.35   -20040.281    1456.8687    -21497.15    101.94558   0.97264698 
   30800     234.2501   -366.90989    213835.35   -20008.845    1472.6199   -21481.465    101.59595   0.97264698 
   30900    244.41405   -422.93765    213835.35   -19980.366    1536.5159   -21516.882    101.51379   0.97264698 
   31000    239.18697   -369.79415    213835.35   -19998.495    1503.6557    -21502.15    102.19343   0.97264698 
   31100    240.81876   -383.13999    213835.35   -19990.019    1513.9139   -21503.933    102.49602   0.97264698 
   31200    238.42208    -343.2354    213835.35   -19971.871    1498.8472   -21470.718    102.41537   0.97264698 
   31300    237.07424   -465.28365    213835.35   -19920.816     1490.374    -21411.19    102.51675   0.97264698 
   31400    244.67871   -288.57773    213835.35    -19950.74    1538.1797    -21488.92     102.6706   0.97264698 
   31500    238.29698   -360.50327    213835.35   -19950.558    1498.0608   -21448.618    103.12408   0.97264698 
   31600    241.09296   -343.12549    213835.35   -19980.598    1515.6378   -21496.236    103.46395   0.97264698 
   31700    243.19355    -425.1518    213835.35   -19965.018    1528.8432   -21493.861     104.0733   0.97264698 
   31800     246.8924   -341.48127    213835.35    -19948.88    1552.0961   -21500.976    103.88887   0.97264698 
   31900    237.94521   -221.07006    213835.35     -19998.9    1495.8493   -21494.749    103.83945   0.97264698 
   32000    243.98942   -311.39451    213835.35   -20035.688    1533.8464   -21569.535    104.35634   0.97264698 
   32100    240.92852   -398.10148    213835.35   -20011.696     1514.604     -21526.3    105.00469   0.97264698 
   32200    234.92896   -439.53924    213835.35   -20033.102    1476.8876    -21509.99     105.2111   0.97264698 
   32300    234.98024   -354.07386    213835.35   -20056.528      1477.21   -21533.738     105.7883   0.97264698 
   32400    233.47778   -517.76923    213835.35   -20037.273    1467.7647   -21505.038       106.26   0.97264698 
   32500    242.13673   -397.71151    213835.35   -19996.426    1522.1995   -21518.625    106.21214   0.97264698 
   32600    245.55517   -402.15748    213835.35   -19970.694    1543.6895   -21514.384    106.39417   0.97264698 
   32700    238.28048   -325.55067    213835.35   -19992.509     1497.957   -21490.466    107.07664   0.97264698 
   32800    247.57988   -264.16894    213835.35   -19951.268    1556.4179   -21507.686     107.1343   0.97264698 
   32900    234.32632   -330.18123    213835.35   -19941.275    1473.0991   -21414.374    107.00031   0.97264698 
   33000    245.26484   -426.67615    213835.35   -19950.097    1541.8644   -21491.962    107.46214   0.97264698 
   33100     240.8942   -311.34201    213835.35   -19975.074    1514.3882   -21489.463    107.70236   0.97264698 
   33200    239.59585   -150.47494    213835.35   -20001.099    1506.2261   -21507.325    108.14268   0.97264698 
   33300    243.38256   -385.34219    213835.35   -19973.262    1530.0314   -21503.294    107.87113   0.97264698 
   33400    239.77351   -596.00021    213835.35   -20021.371     1507.343   -21528.714    107.98876   0.97264698 
   33500    235.91451   -236.65422    213835.35   -20050.061    1483.0833   -21533.144    107.78691   0.97264698 
   33600    237.09555   -364.70774    213835.35   -20040.982    1490.5079    -21531.49    107.95884   0.97264698 
   33700    241.45275   -416.18617    213835.35   -20030.822    1517.8996   -21548.722    108.12234   0.97264698 
   33800    247.57749   -475.00353    213835.35   -19925.559    1556.4029   -21481.962    108.25801   0.97264698 
   33900    242.49531   -326.66232    213835.35   -19920.456    1524.4536    -21444.91    108.56719   0.97264698 
   34000    233.59368   -395.90035    213835.35   -19990.682    1468.4933   -21459.175    108.64912   0.97264698 
   34100     240.8889   -294.49393    213835.35   -20005.774    1514.3549   -21520.129    108.94206   0.97264698 
   34200    243.16734   -424.38178    213835.35     -20009.3    1528.6784   -21537.978     109.0706   0.97264698 
   34300    237.63077   -311.68019    213835.35   -20016.251    1493.8726   -21510.124    109.07887   0.97264698 
   34400      235.721   -285.59446    213835.35   -20047.292    1481.8667   -21529.158      109.203   0.97264698 
   34500    240.96294   -433.98553    213835.35   -19983.591    1514.8204   -21498.412     109.7885   0.97264698 
   34600    247.87554   -395.16009    213835.35   -19924.071    1558.2766   -21482.348    110.03969   0.97264698 
   34700    241.09537   -383.50823    213835.35   -19928.702    1515.6529   -21444.354    110.48487   0.97264698 
   34800    236.62453   -252.37396    213835.35   -19980.883    1487.5468   -21468.429    110.79531   0.97264698 
   34900    237.75431   -485.23498    213835.35   -19947.967    1494.6492   -21442.616    111.13804   0.97264698 
   35000    238.04346   -320.07991    213835.35   -19963.391    1496.4669   -21459.858    111.49492   0.97264698 
   35100    248.95198   -113.90175    213835.35   -19938.889    1565.0437   -21503.932      111.668   0.97264698 
   35200    247.92693   -325.03985    213835.35   -19913.311    1558.5997    -21471.91    112.33416   0.97264698 
   35300    240.15412   -558.51001    213835.35   -19929.874    1509.7357   -21439.609    112.78493   0.97264698 
   35400    243.17451    -251.4427    213835.35   -19928.453    1528.7235   -21457.177    112.75186   0.97264698 
   35500     238.8632   -267.73115    213835.35    -19978.59    1501.6203   -21480.211    113.19015   0.97264698 
   35600    238.19324   -571.76219    213835.35   -19953.709    1497.4086   -21451.118    113.32459   0.97264698 
   35700     244.4468   -390.31796    213835.35   -19940.839    1536.7217   -21477.561    113.44355   0.97264698 
   35800    245.01768   -327.85138    213835.35   -19875.918    1540.3106   -21416.229    113.36756   0.97264698 
   35900    237.56812   -465.62368    213835.35   -19905.612    1493.4787   -21399.091    113.93141   0.97264698 
   36000    235.19099   -603.61559    213835.35   -19962.683    1478.5349   -21441.217    113.96763   0.97264698 
   36100    242.86456   -195.54278    213835.35   -19955.758    1526.7749   -21482.533    114.59147   0.97264698 
   36200    241.26003   -326.98302    213835.35   -20003.477     1516.688   -21520.165    115.10072   0.97264698 
   36300    243.85606   -539.72172    213835.35   -20031.939    1533.0081   -21564.947    115.67581   0.97264698 
   36400    242.76536   -260.51013    213835.35   -19996.426    1526.1513   -21522.577    115.84473   0.97264698 
   36500    249.02369   -260.77058    213835.35   -19976.097    1565.4945   -21541.591    116.16612   0.97264698 
   36600    237.62647   -616.68248    213835.35   -19975.037    1493.8456   -21468.882    116.77248   0.97264698 
   36700     244.5988   -435.56136    213835.35   -19956.548    1537.6773   -21494.225    116.90938   0.97264698 
   36800       235.56   -275.06376    213835.35   -20007.596    1480.8546   -21488.451    117.17687   0.97264698 
   36900    240.92308   -456.90734    213835.35   -20012.192    1514.5698   -21526.762    117.13849   0.97264698 
   37000     243.0712   -483.53751    213835.35   -20010.109     1528.074   -21538.183    117.45304   0.97264698 
   37100    243.02873   -488.87834    213835.35   -20018.731     1527.807   -21546.538    118.01025   0.97264698 
   37200     236.7731   -436.05518    213835.35    -20026.19    1488.4808    -21514.67    119.52148   0.97264698 
   37300    237.40361   -418.49458    213835.35   -20033.371    1492.4446   -21525.816     119.5484   0.97264698 
   37400    241.21375   -246.41447    213835.35   -20053.582    1516.3971   -21569.979    119.91884   0.97264698 
   37500    233.85183   -458.60441    213835.35   -20029.143    1470.1162    -21499.26    120.23935   0.97264698 
   37600    236.51598   -354.72811    213835.35   -20083.053    1486.8645   -21569.917    120.38209   0.97264698 
   37700    234.54312   -312.69059    213835.35   -20101.068     1474.462    -21575.53    121.01311   0.97264698 
   37800    228.68472   -388.30982    213835.35   -20125.121     1437.633   -21562.754    121.87667   0.97264698 
   37900    237.34441   -323.71559    213835.35   -20095.113    1492.0724   -21587.186    122.72331   0.97264698 
   38000    237.58391   -342.48458    213835.35   -20041.663     1493.578   -21535.241     123.1405   0.97264698 
   38100    236.38703   -509.36335    213835.35   -20012.316    1486.0538    -21498.37    123.18764   0.97264698 
   38200    246.93467   -393.50567    213835.35   -19988.817    1552.3618   -21541.179    123.73554   0.97264698 
   38300    243.03835    -465.4621    213835.35   -19953.071    1527.8675   -21480.938    123.76225   0.97264698 
   38400    248.04265   -356.85601    213835.35   -19930.761    1559.3272   -21490.088     124.2131   0.97264698 
   38500    236.93199   -404.07606    213835.35   -19986.988    1489.4797   -21476.468    124.31245   0.97264698 
   38600    243.12314   -333.83427    213835.35   -19980.676    1528.4005   -21509.076    124.32985   0.97264698 
   38700    247.36998   -260.94731    213835.35   -19963.657    1555.0984   -21518.755    124.41259   0.97264698 
   38800    243.33381   -483.88255    213835.35   -19985.353    1529.7249   -21515.078    124.78277   0.97264698 
   38900    241.68729   -426.80801    213835.35   -19949.762     1519.374   -21469.136    125.58673   0.97264698 
   39000    241.28425   -264.03114    213835.35   -19938.384    1516.8403   -21455.224    125.45593   0.97264698 
   39100    242.86226   -299.98805    213835.35    -19975.44    1526.7605     -21502.2    125.49664   0.97264698 
   39200     237.9914   -311.03999    213835.35   -20010.893    1496.1397   -21507.033    125.90371   0.97264698 
   39300     233.3251   -358.02669    213835.35   -20072.697    1466.8048   -21539.502    126.63184   0.97264698 
   39400    237.16643   -440.52216    213835.35   -20012.588    1490.9535   -21503.541     126.7213   0.97264698 
   39500    236.97158   -313.39652    213835.35   -19977.106    1489.7286   -21466.835    127.54572   0.97264698 
   39600    239.97473   -440.19281    213835.35    -19964.28    1508.6079   -21472.888     127.2465   0.97264698 
   39700    244.32759   -294.53041    213835.35   -19959.336    1535.9723   -21495.309    127.77482   0.97264698 
   39800    238.15071   -410.69037    213835.35   -20001.017    1497.1412   -21498.159    128.68224   0.97264698 
   39900    242.04889   -292.30401    213835.35   -19994.147    1521.6472   -21515.794    128.81124   0.97264698 
   40000     237.3232   -446.87133    213835.35   -19973.124     1491.939   -21465.063    129.61735   0.97264698 
   40100    243.70647   -256.87966    213835.35   -19978.171    1532.0676   -21510.239    130.09918   0.97264698 
   40200    242.67094   -426.87636    213835.35   -19981.922    1525.5578    -21507.48    130.22598   0.97264698 
   40300    235.83948   -331.67783    213835.35   -20029.751    1482.6116   -21512.363    130.02327   0.97264698 
   40400    242.00011   -508.55905    213835.35   -20030.164    1521.3405   -21551.505    130.22092   0.97264698 
   40500    242.80111   -368.76699    213835.35   -19983.858    1526.3761   -21510.234     130.2935   0.97264698 
   40600    244.84401   -287.19831    213835.35   -19954.857    1539.2188   -21494.076    130.41918   0.97264698 
   40700     233.1415   -246.61343    213835.35   -20021.256    1465.6506   -21486.907    131.08921   0.97264698 
   40800    238.74485   -426.06422    213835.35   -20014.254    1500.8763    -21515.13    131.62124   0.97264698 
   40900    238.52231   -243.17895    213835.35   -19996.051    1499.4773   -21495.528    132.14164   0.97264698 
   41000    242.10793   -346.76001    213835.35   -19985.007    1522.0184   -21507.026    132.38477   0.97264698 
   41100    232.79895   -240.57242    213835.35   -19995.949    1463.4972   -21459.446    132.32899   0.97264698 
   41200    243.85722   -218.55541    213835.35   -19913.065    1533.0153    -21446.08    132.19129   0.97264698 
   41300    244.87223   -378.49137    213835.35   -19932.331    1539.3962   -21471.728    132.41693   0.97264698 
   41400    239.40564   -347.52274    213835.35   -19957.173    1505.0304   -21462.203    132.61765   0.97264698 
   41500    241.93584   -272.59108    213835.35    -19971.68    1520.9366   -21492.617    132.81396   0.97264698 
   41600     239.0381   -345.93199    213835.35   -19965.344    1502.7198   -21468.064    133.20082   0.97264698 
   41700    236.48686   -368.74943    213835.35   -20026.957    1486.6814   -21513.638    133.37533   0.97264698 
   41800    235.83321   -327.18417    213835.35   -20000.082    1482.5722   -21482.655     133.8534   0.97264698 
   41900    236.20865   -478.13354    213835.35   -20038.805    1484.9324   -21523.737    133.79632   0.97264698 
   42000    237.75266   -286.55781    213835.35   -20004.884    1494.6388   -21499.523    134.66008   0.97264698 
   42100    240.10172   -437.52699    213835.35   -20066.163    1509.4063   -21575.569    135.16001   0.97264698 
   42200    234.86201    -562.9716    213835.35   -20061.379    1476.4667   -21537.846    135.90157   0.97264698 
   42300    237.24625   -148.15791    213835.35   -20035.878    1491.4553   -21527.334    135.56289   0.97264698 
   42400    241.95699   -255.70297    213835.35    -20030.89    1521.0695   -21551.959    135.40864   0.97264698 
   42500    237.89485   -454.00868    213835.35   -20043.595    1495.5328   -21539.128     135.8615   0.97264698 
   42600    235.62509   -285.75666    213835.35   -20045.898    1481.2638   -21527.162    136.09925   0.97264698 
   42700    239.02974   -287.03435    213835.35   -20039.729    1502.6672   -21542.397    135.64097   0.97264698 
   42800    245.19767   -411.00568    213835.35    -20001.56    1541.4421   -21543.002    136.01383   0.97264698 
   42900    236.63542   -352.64753    213835.35   -20020.944    1487.6153   -21508.559    135.82117   0.97264698 
   43000     246.4556   -186.82087    213835.35   -20022.588    1549.3501   -21571.939    136.56086   0.97264698 
   43100    241.53733   -515.89917    213835.35   -19998.008    1518.4313   -21516.439    137.05406   0.97264698 
   43200    235.36767   -235.21933    213835.35   -20020.075    1479.6455    -21499.72    137.11036   0.97264698 
   43300    236.72523    -294.2664    213835.35   -20039.357    1488.1799   -21527.537    137.86299   0.97264698 
   43400    234.74499   -378.20306    213835.35    -19992.04     1475.731   -21467.771    137.99998   0.97264698 
   43500    241.95753   -321.46713    213835.35   -19945.439    1521.0729   -21466.512    138.08289   0.97264698 
   43600    237.85022   -363.68508    213835.35   -20010.548    1495.2522     -21505.8    138.40364   0.97264698 
   43700    235.99721   -430.70037    213835.35   -20050.594    1483.6031   -21534.197     139.0177   0.97264698 
   43800    241.10639   -254.44289    213835.35   -20045.199    1515.7222   -21560.922    139.20656   0.97264698 
   43900    240.18118   -287.97958    213835.35   -20054.129    1509.9058   -21564.035    139.58613   0.97264698 
   44000    236.12053   -463.02267    213835.35   -20097.468    1484.3784   -21581.846    139.68693   0.97264698 
   44100    234.83093   -419.20124    213835.35   -20100.201    1476.2713   -21576.472    139.20342   0.97264698 
   44200    231.08027   -135.83871    213835.35   -20063.976    1452.6927   -21516.669    139.61245   0.97264698 
   44300    236.68199   -487.54944    213835.35   -20083.051     1487.908   -21570.959    140.29046   0.97264698 
   44400    237.01181   -324.02959    213835.35   -20069.047    1489.9814   -21559.029    140.57687   0.97264698 
   44500    234.74088   -189.88057    213835.35    -20042.43    1475.7052   -21518.135     141.1315   0.97264698 
   44600    239.10811   -483.79461    213835.35   -20068.834      1503.16   -21571.994    142.05149   0.97264698 
   44700    234.80474   -405.05694    213835.35    -20055.13    1476.1067   -21531.237    141.87743   0.97264698 
   44800    237.79022   -337.30207    213835.35   -20076.327     1494.875   -21571.202    142.32162   0.97264698 
   44900    239.13015   -333.98294    213835.35    -20006.61    1503.2985   -21509.908    142.92343   0.97264698 
   45000    237.61566   -479.65731    213835.35   -20023.817    1493.7776   -21517.594    143.36469   0.97264698 
   45100    232.08992   -331.18825    213835.35   -19974.368    1459.0399   -21433.408    143.61278   0.97264698 
   45200    244.40335   -246.25639    213835.35   -19964.996    1536.4486   -21501.444    144.13969   0.97264698 
   45300    238.75009         -452    213835.35   -19969.872    1500.9092   -21470.781    144.53009   0.97264698 
   45400    230.64831   -323.02506    213835.35   -20021.426    1449.9771   -21471.404    144.89083   0.97264698 
   45500     244.6337   -433.42842    213835.35   -19990.771    1537.8967   -21528.668    145.29159   0.97264698 
   45600    237.25849    -318.8011    213835.35   -19974.757    1491.5322   -21466.289     145.2019   0.97264698 
   45700    237.98248   -352.51685    213835.35   -20026.046    1496.0836    -21522.13    145.78208   0.97264698 
   45800    238.03343   -438.64247    213835.35   -20005.421    1496.4039   -21501.825    146.63688   0.97264698 
   45900    237.08923   -450.75022    213835.35   -20004.672    1490.4682    -21495.14    147.68469   0.97264698 
   46000    240.17652   -219.01926    213835.35   -19958.617    1509.8765   -21468.493    148.30698   0.97264698 
   46100    246.92158   -429.75816    213835.35   -19942.331    1552.2795   -21494.611    148.18855   0.97264698 
   46200    238.16713   -390.28826    213835.35   -19933.532    1497.2444   -21430.777     148.0553   0.97264698 
   46300    237.40096   -316.41763    213835.35   -19954.194    1492.4279   -21446.622     148.4892   0.97264698 
   46400    240.29411   -389.84246    213835.35   -19982.923    1510.6157   -21493.539    148.86598   0.97264698 
   46500    238.29599   -273.31356    213835.35   -19970.005    1498.0545   -21468.059    148.98188   0.97264698 
   46600    240.01577   -357.01368    213835.35    -19967.58     1508.866   -21476.446    148.97454   0.97264698 
   46700    243.82137   -338.40576    213835.35   -19925.639      1532.79   -21458.429    149.32029   0.97264698 
   46800     241.9178   -340.90169    213835.35   -19936.727    1520.8231    -21457.55    149.70174   0.97264698 
   46900    238.66468    -411.4218    213835.35   -19937.047    1500.3723   -21437.419    149.66866   0.97264698 
   47000    242.83066   -358.74635    213835.35   -19919.517    1526.5619   -21446.079    149.97511   0.97264698 
   47100    234.14717   -412.38665    213835.35   -19947.367    1471.9728    -21419.34    149.82412   0.97264698 
   47200    235.10403   -417.26137    213835.35    -20004.49    1477.9881   -21482.478    149.93126   0.97264698 
   47300    234.43509   -437.57687    213835.35   -19959.424    1473.7828   -21433.207    149.63523   0.97264698 
   47400    241.00512   -339.58746    213835.35   -19965.276    1515.0855   -21480.362    150.68712   0.97264698 
   47500    245.01214   -244.90525    213835.35   -19983.415    1540.2758   -21523.691    150.64057   0.97264698 
   47600    242.00277   -292.42809    213835.35   -19992.997    1521.3573   -21514.355    150.59554   0.97264698 
   47700     238.7853   -341.07248    213835.35   -20000.576    1501.1305   -21501.706    150.29183   0.97264698 
   47800    236.68795   -454.98807    213835.35   -20006.578    1487.9455   -21494.523    150.55215   0.97264698 
   47900    237.31696   -408.78246    213835.35   -20014.424    1491.8998   -21506.324    150.78106   0.97264698 
   48000    241.52821   -338.45935    213835.35   -20006.477     1518.374   -21524.851    151.03153   0.97264698 
   48100    237.40194   -227.18868    213835.35   -20037.337     1492.434   -21529.771    151.26808   0.97264698 
   48200    239.75366   -519.59103    213835.35   -20026.753    1507.2182   -21533.972     151.7458   0.97264698 
   48300    231.82104   -405.21488    213835.35   -20019.861    1457.3496    -21477.21    152.23856   0.97264698 
   48400    238.89687   -325.56431    213835.35   -20019.634    1501.8319   -21521.466    152.14566   0.97264698 
   48500    237.02971   -356.65458    213835.35   -20048.961     1490.094   -21539.055    152.57551   0.97264698 
   48600    232.08655   -301.20595    213835.35   -20076.299    1459.0187   -21535.317    152.87151   0.97264698 
   48700      239.373   -404.04185    213835.35   -20004.453    1504.8252   -21509.279    152.89631   0.97264698 
   48800     235.0401   -345.69097    213835.35   -20027.919    1477.5862   -21505.506    153.05827   0.97264698 
   48900    235.45136   -255.92096    213835.35    -19978.93    1480.1716   -21459.102    153.62876   0.97264698 
   49000    237.31865   -378.51221    213835.35   -20002.261    1491.9105   -21494.172    154.13534   0.97264698 
   49100    240.87518   -380.91099    213835.35   -19978.542    1514.2687   -21492.811    154.24808   0.97264698 
   49200    242.88874   -375.94358    213835.35   -19951.002     1526.927   -21477.929     154.5503   0.97264698 
   49300    239.12717   -337.86046    213835.35    -19954.74    1503.2797   -21458.019    154.22611   0.97264698 
   49400    238.61118   -440.04918    213835.35   -20021.993     1500.036   -21522.029    154.57196   0.97264698 
   49500    240.77688   -403.79969    213835.35   -19994.054    1513.6507   -21507.705    154.94224   0.97264698 
   49600     235.0963   -599.95855    213835.35   -20001.307    1477.9396   -21479.247    154.50165   0.97264698 
   49700    241.73712   -328.14292    213835.35   -19983.301    1519.6873   -21502.989    154.19238   0.97264698 
   49800    241.11916   -325.40864    213835.35   -19999.426    1515.8025   -21515.228    153.78839   0.97264698 
   49900    239.67508   -448.99733    213835.35   -19973.845    1506.7242   -21480.569    154.31653   0.97264698 
   50000    230.93361   -513.64608    213835.35   -20000.698    1451.7707   -21452.469    153.89079   0.97264698 
Loop time of 182.951 on 12 procs for 50000 steps with 9374 atoms

Performance: 118.064 ns/day, 0.203 hours/ns, 273.297 timesteps/s
96.2% CPU use with 12 MPI tasks x no OpenMP threads

MPI task timing breakdown:
Section |  min time  |  avg time  |  max time  |%varavg| %total
---------------------------------------------------------------
Pair    | 29.358     | 68.249     | 142.56     | 574.4 | 37.30
Neigh   | 4.8226     | 6.2733     | 8.9679     |  65.9 |  3.43
Comm    | 17.523     | 94.548     | 134.92     | 504.4 | 51.68
Output  | 2.0607     | 2.0765     | 2.1165     |   1.0 |  1.14
Modify  | 8.1849     | 8.9912     | 9.7893     |  18.5 |  4.91
Other   |            | 2.813      |            |       |  1.54

Nlocal:        781.167 ave        1045 max         608 min
Histogram: 5 2 1 0 0 0 0 0 0 4
Nghost:        2362.58 ave        2797 max        2139 min
Histogram: 5 3 0 0 0 0 0 1 2 1
Neighs:        0.00000 ave           0 max           0 min
Histogram: 12 0 0 0 0 0 0 0 0 0
FullNghs:      79918.2 ave       98495 max       67179 min
Histogram: 2 4 1 1 0 0 0 0 1 3

Total # of neighbors = 959018
Ave neighs/atom = 102.30617
Neighbor list builds = 2884
Dangerous builds = 0

# Create data file for import to other simulations
#
write_data data.${NAME}
write_data data.Ibeam_240K
System init for write_data ...


Total wall time: 0:03:03
