
### Dimensions ###
variable Z_G equal 10.062000000000001
variable Z_W equal 23.803019087

variable	XDIM string 78.752
variable 	YDIM string 80.86108639999017


### IMPORT ATOMS ###
read_data ../Box_Setup/data.Ibeam_240K
Reading data file ...
  orthogonal box = (0.0000000 0.0000000 0.0000000) to (78.752000 80.861086 33.944269)
  4 by 8 by 2 MPI processor grid
  reading atoms ...
  9422 atoms
  reading velocities ...
  9422 velocities
  read_data CPU = 0.024 seconds
group water type 2
2126 atoms in group water
group graphite type 1
7296 atoms in group graphite


# Define potential
#
pair_style          sw
pair_coeff * * MLC_e.sw C mW

# Add velocity/set timestep
#

fix		1 graphite setforce 0.0 0.0 0.0
velocity 	graphite set 0.0 0.0 0.0
velocity            water create ${START_TEMP} ${SEED} rot yes dist gaussian
velocity            water create 235 ${SEED} rot yes dist gaussian
velocity            water create 235 31531 rot yes dist gaussian
timestep            5.0

# Define output
#
compute 1 water msd
compute 2 water temp


thermo	            100
thermo_style custom step c_2 press vol etotal ke pe c_1[4] density

# Neighbor lists
#
neigh_modify        delay 0 every 1 check yes


# Set fixes
#
fix                 2 water momentum 10 linear 1 1 1 rescale
fix                 3 all nve
fix                 4 water temp/csvr ${START_TEMP} ${START_TEMP} 500.0 928347
fix                 4 water temp/csvr 235 ${START_TEMP} 500.0 928347
fix                 4 water temp/csvr 235 235 500.0 928347

# Run 0.05 ns equilibration
#
dump                1 all custom 100 ${DIR}/eq.${NAME}.dump id type x y z vx vy vz
dump                1 all custom 100 run_8/eq.${NAME}.dump id type x y z vx vy vz
dump                1 all custom 100 run_8/eq.ibeam_cooling_8.dump id type x y z vx vy vz
run                 10000
Neighbor list info ...
  update every 1 steps, delay 0 steps, check yes
  max neighbors/atom: 2000, page size: 100000
  master list distance cutoff = 6.6747184
  ghost atom cutoff = 6.6747184
  binsize = 3.3373592, bins = 24 25 11
  1 neighbor lists, perpetual/occasional/extra = 1 0 0
  (1) pair sw, perpetual
      attributes: full, newton on
      pair build: full/bin/atomonly
      stencil: full/bin/3d
      bin: standard
Per MPI rank memory allocation (min/avg/max) = 3.640 | 4.495 | 4.761 Mbytes
Step c_2 Press Volume TotEng KinEng PotEng c_1[4] Density 
       0          235   -349.74665    216156.16   -20108.674     1488.542   -21597.216            0   0.96737059 
     100    229.57561   -350.75576    216156.16   -20125.636    1454.1827   -21579.819   0.90488455   0.96737059 
     200     232.2009   -422.66593    216156.16    -20164.79    1470.8119   -21635.601    1.3837299   0.96737059 
     300    229.72495    -418.0701    216156.16    -20160.91    1455.1287   -21616.039    1.8333491   0.96737059 
     400    242.09248   -276.39528    216156.16   -20171.632    1533.4673     -21705.1    2.1536874   0.96737059 
     500    242.43986   -490.07584    216156.16   -20155.167    1535.6677   -21690.834    2.5565934   0.96737059 
     600     242.6063   -417.70788    216156.16   -20107.873     1536.722   -21644.595    2.9548521   0.96737059 
     700    235.36695   -465.01572    216156.16   -20128.009    1490.8664   -21618.875    3.4517546   0.96737059 
     800    241.92373   -360.47364    216156.16   -20123.143    1532.3985   -21655.541    3.7937473   0.96737059 
     900    233.94989   -278.06661    216156.16   -20150.602    1481.8904   -21632.492    4.1424923   0.96737059 
    1000    229.79904   -382.84132    216156.16   -20197.123     1455.598   -21652.721    4.5067729   0.96737059 
    1100    237.72101   -280.22381    216156.16    -20184.55    1505.7775   -21690.327    4.8566226   0.96737059 
    1200    237.34325   -475.93447    216156.16    -20185.18    1503.3847   -21688.565     5.246902   0.96737059 
    1300    242.34812   -219.75418    216156.16   -20149.513    1535.0867   -21684.599    5.5573238   0.96737059 
    1400    237.33056   -542.80152    216156.16   -20191.981    1503.3043   -21695.286    5.9899448   0.96737059 
    1500    237.85967   -300.27884    216156.16   -20227.925    1506.6558    -21734.58    6.4191844   0.96737059 
    1600    231.68209   -383.85696    216156.16   -20208.281    1467.5256   -21675.807    7.0771992   0.96737059 
    1700    234.31608   -471.11317    216156.16   -20214.196    1484.2099   -21698.405     7.273404   0.96737059 
    1800    241.52995   -360.71887    216156.16   -20188.352    1529.9042   -21718.256    7.6773253   0.96737059 
    1900    243.66704   -335.05867    216156.16   -20151.074     1543.441   -21694.515    7.8833251   0.96737059 
    2000    241.02939   -387.72239    216156.16    -20125.63    1526.7335   -21652.363    8.3086613   0.96737059 
    2100    235.67599   -314.42777    216156.16   -20214.593    1492.8239   -21707.417    8.6041928   0.96737059 
    2200    236.31221   -307.67433    216156.16   -20173.652    1496.8539   -21670.506    8.8423762   0.96737059 
    2300    233.54569   -405.94679    216156.16   -20144.066    1479.3301   -21623.396    9.1269761   0.96737059 
    2400    238.93414     -400.388    216156.16   -20149.908    1513.4617    -21663.37    9.1773014   0.96737059 
    2500    236.79336   -389.41748    216156.16   -20148.011    1499.9016   -21647.912    9.5762511   0.96737059 
    2600    236.81426   -272.89371    216156.16   -20173.064     1500.034   -21673.098    9.6647004   0.96737059 
    2700     237.8029   -410.22036    216156.16   -20164.877    1506.2962   -21671.173    9.7589645   0.96737059 
    2800    242.94913   -404.35391    216156.16   -20111.046    1538.8936   -21649.939    9.8791788   0.96737059 
    2900    240.28537   -448.50194    216156.16   -20119.622    1522.0207   -21641.642     9.857914   0.96737059 
    3000    242.33431   -371.92602    216156.16   -20126.207    1534.9992   -21661.206     9.972943   0.96737059 
    3100    245.77085   -309.88862    216156.16   -20139.442     1556.767   -21696.209    10.333479   0.96737059 
    3200    232.95488   -638.41046    216156.16   -20198.913    1475.5878   -21674.501    10.780667   0.96737059 
    3300    236.04405   -208.48672    216156.16   -20285.602    1495.1553   -21780.757    11.308533   0.96737059 
    3400    231.60727   -329.95905    216156.16   -20239.536    1467.0517   -21706.587    11.819084   0.96737059 
    3500    233.83019   -574.15128    216156.16   -20249.586    1481.1322   -21730.719    12.077287   0.96737059 
    3600    238.79247   -251.35001    216156.16   -20243.341    1512.5643   -21755.905    12.400362   0.96737059 
    3700     238.7889   -363.67226    216156.16   -20224.755    1512.5418   -21737.297    12.742575   0.96737059 
    3800    240.23757   -408.62194    216156.16    -20233.15     1521.718   -21754.868    12.850098   0.96737059 
    3900    235.45051   -242.05256    216156.16   -20249.476    1491.3956   -21740.872    13.001196   0.96737059 
    4000    229.70073   -565.99017    216156.16   -20271.195    1454.9753    -21726.17    13.153818   0.96737059 
    4100    239.78529   -443.33309    216156.16   -20249.122    1518.8531   -21767.975    13.639938   0.96737059 
    4200    230.26073   -347.25451    216156.16   -20241.972    1458.5225   -21700.495    13.997473   0.96737059 
    4300    221.45462   -458.80007    216156.16   -20292.181    1402.7426   -21694.924    14.150606   0.96737059 
    4400    235.08327   -591.83287    216156.16   -20240.196    1489.0695   -21729.266    14.618765   0.96737059 
    4500    231.34932    -336.2523    216156.16   -20262.521    1465.4178   -21727.939    14.987608   0.96737059 
    4600    233.51599   -366.80231    216156.16   -20302.104    1479.1419   -21781.246     15.14738   0.96737059 
    4700    237.37838   -429.87765    216156.16   -20239.511    1503.6072   -21743.118    15.392123   0.96737059 
    4800    237.38762   -360.40682    216156.16   -20202.922    1503.6657   -21706.588    15.662561   0.96737059 
    4900    236.80865   -374.12187    216156.16   -20162.223    1499.9984   -21662.221    15.708756   0.96737059 
    5000    237.17939   -355.83938    216156.16   -20213.005    1502.3467   -21715.352     16.15651   0.96737059 
    5100    237.05133    -492.3716    216156.16   -20193.155    1501.5356   -21694.691    16.486321   0.96737059 
    5200    230.61324   -368.70274    216156.16   -20235.118    1460.7553   -21695.873    16.835241   0.96737059 
    5300    236.97762   -240.66847    216156.16   -20287.198    1501.0687   -21788.267    17.204602   0.96737059 
    5400    234.44916   -304.85031    216156.16   -20271.458    1485.0529   -21756.511    17.758238   0.96737059 
    5500    232.37678   -366.95053    216156.16   -20271.213    1471.9259   -21743.139    17.968681   0.96737059 
    5600    230.02775   -415.62584    216156.16   -20293.472    1457.0467   -21750.518    18.455579   0.96737059 
    5700     235.0237   -423.13027    216156.16   -20283.369    1488.6922   -21772.061    18.603886   0.96737059 
    5800    238.76144   -613.34945    216156.16   -20259.845    1512.3678   -21772.213     19.06759   0.96737059 
    5900     226.5015   -223.99124    216156.16   -20281.527    1434.7106   -21716.237    19.272942   0.96737059 
    6000    236.27696   -172.25702    216156.16   -20298.282    1496.6306   -21794.913    19.655309   0.96737059 
    6100    232.40927   -321.08018    216156.16   -20306.806    1472.1317   -21778.938    19.776522   0.96737059 
    6200    233.86711   -328.96956    216156.16   -20307.567     1481.366   -21788.933    20.039623   0.96737059 
    6300    231.33045   -406.09794    216156.16   -20240.223    1465.2983   -21705.521    20.352819   0.96737059 
    6400     231.6828   -280.12065    216156.16   -20261.081    1467.5301   -21728.611    20.426967   0.96737059 
    6500    225.79458   -308.57129    216156.16     -20265.2    1430.2328   -21695.433    20.742469   0.96737059 
    6600    235.18221   -417.19436    216156.16   -20266.059    1489.6962   -21755.755    20.752836   0.96737059 
    6700    228.33396   -211.60204    216156.16   -20299.261    1446.3178   -21745.579    20.915037   0.96737059 
    6800    233.37606   -272.46684    216156.16   -20288.402    1478.2556   -21766.658    21.503944   0.96737059 
    6900    239.04834   -485.07704    216156.16   -20252.161    1514.1851   -21766.346    21.718496   0.96737059 
    7000    231.66543   -334.69533    216156.16   -20245.903    1467.4201   -21713.324    22.049797   0.96737059 
    7100    235.60064   -418.68881    216156.16   -20252.111    1492.3466   -21744.457     22.56531   0.96737059 
    7200     236.5141   -188.93359    216156.16   -20316.294    1498.1327   -21814.427    22.782702   0.96737059 
    7300    227.62579   -303.62914    216156.16   -20349.406    1441.8321   -21791.238    22.883878   0.96737059 
    7400    232.48857    -431.4154    216156.16   -20309.247     1472.634   -21781.881    23.147834   0.96737059 
    7500    230.40381   -131.97032    216156.16   -20251.187    1459.4288   -21710.616    23.497748   0.96737059 
    7600    237.55398   -314.71488    216156.16   -20209.776    1504.7195   -21714.496    23.515571   0.96737059 
    7700    232.15025   -521.21343    216156.16    -20239.91    1470.4911   -21710.401    23.893826   0.96737059 
    7800    236.72661   -315.40777    216156.16   -20297.418    1499.4787   -21796.897    23.964319   0.96737059 
    7900    238.55702   -448.08007    216156.16   -20258.499     1511.073   -21769.572    24.212896   0.96737059 
    8000    235.54505   -440.57573    216156.16   -20213.991    1491.9945   -21705.985    24.541226   0.96737059 
    8100    238.22411   -326.42988    216156.16   -20197.352    1508.9642   -21706.316    25.018176   0.96737059 
    8200    241.53894   -332.09066    216156.16   -20209.647    1529.9611   -21739.608    24.721078   0.96737059 
    8300    242.90733    -502.4826    216156.16   -20190.268    1538.6288   -21728.897    25.024985   0.96737059 
    8400    237.93557   -345.11636    216156.16   -20182.114    1507.1366   -21689.251    25.520936   0.96737059 
    8500    231.84934   -471.93868    216156.16   -20209.532     1468.585   -21678.117    25.588038   0.96737059 
    8600    234.57494   -454.96192    216156.16   -20222.532    1485.8496   -21708.382    25.801246   0.96737059 
    8700    233.11259   -324.12643    216156.16   -20239.242    1476.5868   -21715.829    25.955967   0.96737059 
    8800    232.63674   -383.77647    216156.16    -20224.36    1473.5726   -21697.932    26.203121   0.96737059 
    8900    229.30413   -470.81168    216156.16   -20239.321    1452.4631   -21691.784    26.582127   0.96737059 
    9000    227.26406    -374.3673    216156.16   -20190.271    1439.5409   -21629.812    26.553113   0.96737059 
    9100    236.35859   -432.48416    216156.16   -20201.037    1497.1477   -21698.185    26.545132   0.96737059 
    9200    244.22818   -419.54297    216156.16   -20165.373    1546.9954   -21712.369    26.745225   0.96737059 
    9300    235.35899   -359.86483    216156.16   -20225.236     1490.816   -21716.052    26.982377   0.96737059 
    9400     231.9717   -310.49631    216156.16    -20223.88    1469.3601    -21693.24    27.210844   0.96737059 
    9500    228.05105   -326.04707    216156.16   -20256.273    1444.5258   -21700.799     27.38093   0.96737059 
    9600    233.15972     -357.694    216156.16   -20248.557    1476.8853   -21725.442    27.835729   0.96737059 
    9700    234.51193   -328.23134    216156.16   -20215.314    1485.4504   -21700.765    27.894103   0.96737059 
    9800    239.36009   -361.49418    216156.16    -20178.85    1516.1598    -21695.01    28.187129   0.96737059 
    9900    234.01185   -317.13163    216156.16   -20201.313    1482.2829   -21683.596     28.75748   0.96737059 
   10000    242.28714   -478.68785    216156.16   -20212.269    1534.7004   -21746.969    29.206785   0.96737059 
Loop time of 14.2079 on 64 procs for 10000 steps with 9422 atoms

Performance: 304.056 ns/day, 0.079 hours/ns, 703.833 timesteps/s
99.0% CPU use with 64 MPI tasks x no OpenMP threads

MPI task timing breakdown:
Section |  min time  |  avg time  |  max time  |%varavg| %total
---------------------------------------------------------------
Pair    | 0.0018063  | 4.8705     | 10.907     | 192.1 | 34.28
Neigh   | 0.0057912  | 0.28252    | 0.61366    |  41.3 |  1.99
Comm    | 1.5237     | 4.9796     | 11.021     | 146.7 | 35.05
Output  | 0.17924    | 0.18051    | 0.18258    |   0.2 |  1.27
Modify  | 0.66369    | 3.6244     | 11.292     | 221.4 | 25.51
Other   |            | 0.2703     |            |       |  1.90

Nlocal:        147.219 ave         284 max           0 min
Histogram: 16 0 2 14 0 0 0 7 12 13
Nghost:        825.516 ave        1034 max         628 min
Histogram: 14 7 11 0 0 0 0 15 7 10
Neighs:         0.00000 ave           0 max           0 min
Histogram: 64 0 0 0 0 0 0 0 0 0
FullNghs:      14987.5 ave       32096 max           0 min
Histogram: 16 16 0 0 0 0 0 7 12 13

Total # of neighbors = 959200
Ave neighs/atom = 101.80429
Neighbor list builds = 560
Dangerous builds = 0
write_data 	    ${DIR}/data.${NAME}_eq
write_data 	    run_8/data.${NAME}_eq
write_data 	    run_8/data.ibeam_cooling_8_eq
System init for write_data ...

undump              1
unfix               4



################################################
#######         Run Simulation         #########
################################################

reset_timestep      0
timestep	    10.0
log                 ${DIR}/log.run_${NAME}
log                 run_8/log.run_${NAME}
log                 run_8/log.run_ibeam_cooling_8
