
### Dimensions ###
variable Z_G equal 10.062000000000001
variable Z_W equal 23.803019087

variable	XDIM string 78.752
variable 	YDIM string 68.92587069519459


### IMPORT ATOMS ###
read_data ../Box_Setup/data.Ibeam_240K
Reading data file ...
  orthogonal box = (0.0000000 0.0000000 0.0000000) to (78.752000 68.925871 33.963510)
  8 by 8 by 2 MPI processor grid
  reading atoms ...
  8098 atoms
  reading velocities ...
  8098 velocities
  read_data CPU = 0.020 seconds
group water type 2
1794 atoms in group water
group graphite type 1
6304 atoms in group graphite


# Define potential
#
pair_style          sw
pair_coeff * * MLC_e.sw C mW

# Add velocity/set timestep
#

fix		1 graphite setforce 0.0 0.0 0.0
velocity 	graphite set 0.0 0.0 0.0
velocity            water create ${START_TEMP} ${SEED} rot yes dist gaussian
velocity            water create 240 ${SEED} rot yes dist gaussian
velocity            water create 240 7296 rot yes dist gaussian
timestep            5.0

# Define output
#
compute 1 water msd
compute 2 water temp


thermo	            100
thermo_style custom step c_2 press vol etotal ke pe c_1[4] density

# Neighbor lists
#
neigh_modify        delay 0 every 1 check yes


# Set fixes
#
fix                 2 water momentum 10 linear 1 1 1 rescale
fix                 3 all nve
fix                 4 water temp/csvr ${START_TEMP} ${START_TEMP} 500.0 928347
fix                 4 water temp/csvr 240 ${START_TEMP} 500.0 928347
fix                 4 water temp/csvr 240 240 500.0 928347

# Run 0.05 ns equilibration
#
dump                1 all custom 100 ${DIR}/eq.${NAME}.dump id type x y z vx vy vz
dump                1 all custom 100 run_4/eq.${NAME}.dump id type x y z vx vy vz
dump                1 all custom 100 run_4/eq.ibeam_cooling_4.dump id type x y z vx vy vz
run                 10000
Neighbor list info ...
  update every 1 steps, delay 0 steps, check yes
  max neighbors/atom: 2000, page size: 100000
  master list distance cutoff = 6.6747184
  ghost atom cutoff = 6.6747184
  binsize = 3.3373592, bins = 24 21 11
  1 neighbor lists, perpetual/occasional/extra = 1 0 0
  (1) pair sw, perpetual
      attributes: full, newton on
      pair build: full/bin/atomonly
      stencil: full/bin/3d
      bin: standard
Per MPI rank memory allocation (min/avg/max) = 3.600 | 4.444 | 4.730 Mbytes
Step c_2 Press Volume TotEng KinEng PotEng c_1[4] Density 
       0          240   -393.07244    184355.63   -16966.788    1282.7022    -18249.49            0   0.97305373 
     100    238.88721   -400.14159    184355.63   -16981.302    1276.7548   -18258.057   0.89897289   0.97305373 
     200    242.30137   -426.57045    184355.63   -17042.948     1295.002   -18337.951    1.2431042   0.97305373 
     300    238.84937    -391.7705    184355.63   -17017.288    1276.5525   -18293.841    1.6754245   0.97305373 
     400    232.55812   -491.01623    184355.63   -17021.795    1242.9284   -18264.723    2.0515672   0.97305373 
     500    237.43996   -284.56556    184355.63    -16997.35    1269.0198    -18266.37    2.4029355   0.97305373 
     600    247.74851   -274.63331    184355.63    -16924.21    1324.1148   -18248.325    2.8100033   0.97305373 
     700    242.64001   -428.63408    184355.63   -16920.614     1296.812   -18217.426     3.220664   0.97305373 
     800    242.24574   -445.09226    184355.63   -16898.313    1294.7048   -18193.018    3.6780017   0.97305373 
     900    236.35549   -344.85195    184355.63   -16941.886    1263.2237    -18205.11    4.0527733   0.97305373 
    1000     232.9743    -517.2772    184355.63   -16993.974    1245.1527   -18239.127    4.5165262   0.97305373 
    1100    243.13769   -281.67991    184355.63   -16968.758    1299.4718    -18268.23    4.8579853   0.97305373 
    1200    239.43554   -406.80606    184355.63   -16967.194    1279.6854   -18246.879    5.0794532   0.97305373 
    1300    248.69771   -235.53434    184355.63   -16926.158    1329.1879   -18255.345     5.397705   0.97305373 
    1400    245.35569   -352.84103    184355.63   -16942.745    1311.3261   -18254.071    5.8163923   0.97305373 
    1500    242.98282   -326.51448    184355.63   -16961.492    1298.6441   -18260.136    6.3581357   0.97305373 
    1600    241.32938   -289.26293    184355.63   -16951.779    1289.8072   -18241.586    6.8593608   0.97305373 
    1700    242.44695   -320.33923    184355.63   -16957.993    1295.7801   -18253.774    7.0176959   0.97305373 
    1800    241.04682   -415.90969    184355.63    -16943.85     1288.297   -18232.147    7.4627618   0.97305373 
    1900    249.94326   -221.00709    184355.63    -16909.54    1335.8449   -18245.385     7.820345   0.97305373 
    2000     248.0705   -446.87715    184355.63   -16874.958    1325.8357   -18200.794    8.2640602   0.97305373 
    2100    240.64095    -477.5159    184355.63   -16976.963    1286.1278   -18263.091    8.9121545   0.97305373 
    2200    243.88819   -447.74945    184355.63   -16968.891     1303.483   -18272.374    9.4868534   0.97305373 
    2300    235.78439   -433.83893    184355.63   -16959.444    1260.1715   -18219.616    10.248004   0.97305373 
    2400    241.42199   -333.27597    184355.63   -16956.328    1290.3021   -18246.631    10.844584   0.97305373 
    2500    244.64734    -399.9841    184355.63   -16977.476    1307.5403   -18285.016    11.362301   0.97305373 
    2600    239.16179   -330.26216    184355.63   -16957.807    1278.2223   -18236.029    11.890809   0.97305373 
    2700    238.41984   -328.99791    184355.63   -16970.094    1274.2569   -18244.351    12.244889   0.97305373 
    2800    240.62431   -331.60819    184355.63   -16911.317    1286.0389   -18197.356    12.506406   0.97305373 
    2900    247.36144   -272.14988    184355.63   -16909.626    1322.0461   -18231.672    12.789646   0.97305373 
    3000    241.26607   -289.19395    184355.63   -16926.455    1289.4688   -18215.924    13.329062   0.97305373 
    3100    237.08261   -431.60762    184355.63   -16916.437    1267.1099   -18183.547    13.492244   0.97305373 
    3200    242.11648   -230.88913    184355.63   -16960.176    1294.0139    -18254.19    13.931074   0.97305373 
    3300    235.24686   -399.43839    184355.63   -17019.282    1257.2986   -18276.581    14.373926   0.97305373 
    3400    242.48918   -468.82897    184355.63   -16980.071    1296.0058   -18276.077    14.757631   0.97305373 
    3500    243.83791   -427.24576    184355.63   -16967.884    1303.2142   -18271.098    14.919229   0.97305373 
    3600    243.71032   -416.56656    184355.63   -16983.725    1302.5323   -18286.258    15.262726   0.97305373 
    3700    235.17333   -487.75215    184355.63   -16978.054    1256.9056   -18234.959    15.658905   0.97305373 
    3800    243.56096   -343.37943    184355.63   -16951.844    1301.7341   -18253.578    16.276624   0.97305373 
    3900    239.91694   -454.26785    184355.63   -16954.388    1282.2583   -18236.647    16.914716   0.97305373 
    4000     242.4918   -386.73163    184355.63   -16991.136    1296.0199   -18287.156    17.335063   0.97305373 
    4100    243.46276   -484.61334    184355.63   -16983.495    1301.2092   -18284.704    17.619588   0.97305373 
    4200    242.47379   -209.64193    184355.63   -16961.662    1295.9236   -18257.585    18.117354   0.97305373 
    4300    237.83138   -283.31113    184355.63    -17011.06    1271.1118   -18282.172    18.529609   0.97305373 
    4400     241.5915   -401.35184    184355.63   -16971.133    1291.2081   -18262.341    19.168924   0.97305373 
    4500    239.71216   -514.78842    184355.63    -17010.81    1281.1638   -18291.973    19.499806   0.97305373 
    4600    236.92307   -263.28043    184355.63   -17056.042    1266.2572   -18322.299    19.743069   0.97305373 
    4700    241.22042    -274.4896    184355.63   -16986.111    1289.2248   -18275.336    19.818152   0.97305373 
    4800    235.91707   -316.83523    184355.63   -16976.917    1260.8806   -18237.797    19.937332   0.97305373 
    4900    249.46183   -145.60882    184355.63   -16935.422    1333.2718   -18268.694    19.514894   0.97305373 
    5000    239.40304    -249.0145    184355.63   -16991.667    1279.5117   -18271.178    19.718745   0.97305373 
    5100     241.9323   -336.07032    184355.63   -16984.415    1293.0296   -18277.444    19.803783   0.97305373 
    5200    243.89047   -348.21721    184355.63   -16995.509    1303.4952   -18299.004    20.016778   0.97305373 
    5300     234.7353   -271.09094    184355.63   -17056.256    1254.5645    -18310.82    20.208949   0.97305373 
    5400    239.94855   -283.12794    184355.63   -17037.264    1282.4272   -18319.691    20.245606   0.97305373 
    5500    240.83664   -419.00462    184355.63   -17021.414    1287.1737   -18308.587    20.223663   0.97305373 
    5600    236.09886   -475.32311    184355.63   -17056.573    1261.8522   -18318.425    20.570869   0.97305373 
    5700    239.55637    -302.4341    184355.63   -17022.427    1280.3312   -18302.758     20.67517   0.97305373 
    5800    236.96544   -463.61093    184355.63   -17026.881    1266.4837   -18293.365    20.843934   0.97305373 
    5900    238.22147   -334.40914    184355.63   -17051.056    1273.1967   -18324.253    21.355364   0.97305373 
    6000    236.26625   -334.29988    184355.63   -17059.021    1262.7468   -18321.767    21.887299   0.97305373 
    6100    238.15624   -515.26746    184355.63   -17066.397    1272.8481   -18339.245    22.381316   0.97305373 
    6200    235.50475   -419.27719    184355.63   -17075.269    1258.6769   -18333.946    22.444799   0.97305373 
    6300    239.28103   -288.73001    184355.63   -17023.966    1278.8596   -18302.825     22.81917   0.97305373 
    6400     241.2214   -445.23154    184355.63    -17035.77    1289.2301       -18325    23.044714   0.97305373 
    6500    239.93797   -285.70836    184355.63   -17045.566    1282.3707   -18327.936    23.020983   0.97305373 
    6600    241.12776   -370.29679    184355.63   -17084.506    1288.7296   -18373.236    23.332475   0.97305373 
    6700    240.16338   -479.88736    184355.63   -17090.272    1283.5754   -18373.848    23.754493   0.97305373 
    6800    232.88138   -552.82841    184355.63   -17085.299     1244.656   -18329.955    24.268553   0.97305373 
    6900    239.04121   -342.62568    184355.63   -17048.394    1277.5779   -18325.972    24.364516   0.97305373 
    7000     238.1627   -277.39706    184355.63   -17054.206    1272.8826   -18327.088    24.473476   0.97305373 
    7100    244.84548    -327.0974    184355.63    -17076.88    1308.5993   -18385.479    24.543246   0.97305373 
    7200    229.99285   -239.01162    184355.63   -17126.008     1229.218   -18355.226    24.601272   0.97305373 
    7300    234.59924   -557.08231    184355.63    -17160.81    1253.8373   -18414.648    24.897049   0.97305373 
    7400    234.27794   -455.52067    184355.63   -17120.915    1252.1201   -18373.035     25.10094   0.97305373 
    7500    234.26591   -497.90931    184355.63   -17116.811    1252.0558   -18368.866     24.99202   0.97305373 
    7600    236.75078   -268.01466    184355.63    -17082.87    1265.3364   -18348.207     25.03138   0.97305373 
    7700    236.95141   -525.30696    184355.63   -17049.071    1266.4087    -18315.48    25.474657   0.97305373 
    7800    235.35731   -473.19733    184355.63   -17084.728    1257.8889   -18342.617    25.922342   0.97305373 
    7900    237.54388   -445.19024    184355.63   -17081.849    1269.5752   -18351.424    26.078903   0.97305373 
    8000    238.70784   -304.78643    184355.63   -17011.723    1275.7961   -18287.519    26.264892   0.97305373 
    8100    240.33447   -249.86415    184355.63   -16991.306    1284.4898   -18275.796    26.488565   0.97305373 
    8200    239.31382   -583.74972    184355.63    -17011.93    1279.0349   -18290.965    27.048188   0.97305373 
    8300    245.04951   -297.16808    184355.63   -16977.422    1309.6897   -18287.112    27.923271   0.97305373 
    8400    245.87497   -352.15291    184355.63   -16958.664    1314.1015   -18272.765     28.32634   0.97305373 
    8500    239.48115   -399.03619    184355.63   -16988.429    1279.9292   -18268.358    28.794025   0.97305373 
    8600     242.5122   -453.46564    184355.63   -16993.946    1296.1289   -18290.075    28.911455   0.97305373 
    8700    237.73435   -449.88778    184355.63   -16995.487    1270.5932    -18266.08     29.11236   0.97305373 
    8800     239.9348   -500.76118    184355.63   -16988.852    1282.3537   -18271.206    29.391742   0.97305373 
    8900    232.18463   -370.07242    184355.63   -17017.824    1240.9322   -18258.756    29.256049   0.97305373 
    9000    244.90379    -277.2764    184355.63   -17011.704    1308.9109   -18320.615    29.486625   0.97305373 
    9100     241.9639   -411.11769    184355.63   -17027.683    1293.1984   -18320.881    30.039434   0.97305373 
    9200    238.87229   -253.91724    184355.63   -17006.309     1276.675   -18282.984    30.265967   0.97305373 
    9300     237.5163    -438.9101    184355.63   -17035.952    1269.4278    -18305.38    30.762433   0.97305373 
    9400    238.26804   -257.41193    184355.63   -17057.475    1273.4456    -18330.92     31.36772   0.97305373 
    9500    232.06312   -473.82155    184355.63   -17059.481    1240.2828   -18299.763     31.92188   0.97305373 
    9600    230.61139   -536.20007    184355.63   -17114.014    1232.5239   -18346.538    32.090208   0.97305373 
    9700    232.75668   -481.62569    184355.63   -17049.446    1243.9896   -18293.436    32.060115   0.97305373 
    9800    246.58664   -464.62329    184355.63   -17000.975    1317.9051    -18318.88    32.547067   0.97305373 
    9900    238.84607   -392.50639    184355.63   -17017.122    1276.5349   -18293.657    32.952323   0.97305373 
   10000    240.16957    -265.2582    184355.63   -17010.438    1283.6085   -18294.047    33.213341   0.97305373 
Loop time of 6.06037 on 128 procs for 10000 steps with 8098 atoms

Performance: 712.828 ns/day, 0.034 hours/ns, 1650.064 timesteps/s
96.4% CPU use with 128 MPI tasks x no OpenMP threads

MPI task timing breakdown:
Section |  min time  |  avg time  |  max time  |%varavg| %total
---------------------------------------------------------------
Pair    | 0.00064421 | 1.6838     | 4.7752     | 116.7 | 27.78
Neigh   | 0.002816   | 0.12359    | 0.29613    |  27.7 |  2.04
Comm    | 0.16612    | 1.6049     | 3.9922     |  79.2 | 26.48
Output  | 0.14104    | 0.14114    | 0.14195    |   0.0 |  2.33
Modify  | 0.14732    | 2.4312     | 5.6776     | 129.3 | 40.12
Other   |            | 0.0757     |            |       |  1.25

Nlocal:        63.2656 ave         133 max           0 min
Histogram: 32 4 12 15 1 0 8 21 26 9
Nghost:        593.664 ave         843 max         389 min
Histogram: 17 15 17 15 15 1 14 12 6 16
Neighs:         0.00000 ave           0 max           0 min
Histogram: 128 0 0 0 0 0 0 0 0 0
FullNghs:      6502.03 ave       15396 max           0 min
Histogram: 48 16 0 0 0 0 13 25 20 6

Total # of neighbors = 832260
Ave neighs/atom = 102.77352
Neighbor list builds = 568
Dangerous builds = 0
write_data 	    ${DIR}/data.${NAME}_eq
write_data 	    run_4/data.${NAME}_eq
write_data 	    run_4/data.ibeam_cooling_4_eq
System init for write_data ...

undump              1
unfix               4



################################################
#######         Run Simulation         #########
################################################

reset_timestep      0
timestep	    10.0
log                 ${DIR}/log.run_${NAME}
log                 run_4/log.run_${NAME}
log                 run_4/log.run_ibeam_cooling_4
