
# Set production fixes - Nose/Hoover
#
fix                 4 water temp/csvr ${START_TEMP} ${END_TEMP} 500.0 928347
fix                 4 water temp/csvr 235 ${END_TEMP} 500.0 928347
fix                 4 water temp/csvr 235 225 500.0 928347


## divide "droplet" into core and surface
#region		core_reg cylinder z 135 135 44.6 20 INF units box
#region		surface_reg cylinder z 135 135 44.6 20 INF units box side out
#group		core dynamic all region core_reg
#group		surface dynamic all region surface_reg

## compute pressure core
#compute        peratom_core core stress/atom NULL
#compute        p_core core reduce sum c_peratom_core[1] c_peratom_core[2] c_peratom_core[3]
#variable       press_core equal -(c_p_core[1]+c_p_core[2]+c_p_core[3])/(3*1249982.5)


## compute pressure surface
#compute        peratom_surf surface stress/atom NULL
#compute        p_surf surface reduce sum c_peratom_surf[1] c_peratom_surf[2] #c_peratom_surf[3]
#variable       press_surf equal -(c_p_surf[1]+c_p_surf[2]+c_p_surf[3])/(3*42395)

## compute total pressure of drop
compute        peratom water stress/atom NULL
compute        p water reduce sum c_peratom[1] c_peratom[2] c_peratom[3]
variable       press equal -(c_p[1]+c_p[2]+c_p[3])/(3*58301)


# compute order parameter
compute        3 all orientorder/atom nnn NULL cutoff 3.5

# compute center of mass of bridge
compute 	4 water com

# Run simulation
thermo_style        custom step c_2 press vol etotal ke pe v_press c_1[4] c_4[*]
thermo              200
dump		     1 water custom 400 ${DIR}/prod.${NAME}.dump id type x y z vx vy vz c_3[*] c_peratom[*]
dump		     1 water custom 400 run_10/prod.${NAME}.dump id type x y z vx vy vz c_3[*] c_peratom[*]
dump		     1 water custom 400 run_10/prod.ibeam_cooling_10.dump id type x y z vx vy vz c_3[*] c_peratom[*]
run                 ${STEPS}
run                 4000000
Neighbor list info ...
  update every 1 steps, delay 0 steps, check yes
  max neighbors/atom: 2000, page size: 100000
  master list distance cutoff = 6.67472
  ghost atom cutoff = 6.67472
  binsize = 3.33736, bins = 48 11 12
  2 neighbor lists, perpetual/occasional/extra = 1 1 0
  (1) pair sw, perpetual
      attributes: full, newton on
      pair build: full/bin/atomonly
      stencil: full/bin/3d
      bin: standard
  (2) compute orientorder/atom, occasional, copy from (1)
      attributes: full, newton on
      pair build: copy
      stencil: none
      bin: none
Per MPI rank memory allocation (min/avg/max) = 6.147 | 6.824 | 7.319 Mbytes
Step c_2 Press Volume TotEng KinEng PotEng v_press c_1[4] c_4[1] c_4[2] c_4[3] 
       0    239.35134   -285.84677    229018.04   -21263.581    1585.3101   -22848.891   -612.73554    34.665014    78.595547    15.913006    29.603817 
     200    234.30128   -146.18407    229018.04   -21294.742    1551.8617   -22846.603   -83.599701    36.698422    78.594719    15.913286    29.622511 
     400    234.95381   -419.99508    229018.04   -21293.784    1556.1837   -22849.968   -1148.8029    38.035411    78.593018    15.914111    29.635303 
     600    228.40912   -270.75388    229018.04   -21429.334    1512.8358   -22942.169   -562.35925    38.692834    78.593693    15.914892    29.632833 
     800    222.94493    -243.4684    229018.04   -21412.557    1476.6445   -22889.201   -481.90985    39.833459    78.593252    15.914745    29.618407 
    1000    236.06027   -192.87239    229018.04   -21285.913    1563.5121   -22849.425    -287.4008    40.210271    78.594384     15.91349    29.639574 
    1200    232.53983   -218.65805    229018.04    -21358.61     1540.195   -22898.805   -373.82579    41.716734    78.593524    15.916005    29.647289 
    1400    236.64447   -82.471055    229018.04   -21219.249    1567.3815   -22786.631    168.16628    42.640043    78.592028    15.915796    29.658836 
    1600    244.95205    -434.3204    229018.04   -21236.284    1622.4056   -22858.689   -1195.6375    43.692035    78.591741      15.9153    29.666211 
    1800    235.77649    -231.8484    229018.04   -21259.756    1561.6325   -22821.388    -385.0966    44.481938    78.591729     15.91228    29.682453 
    2000    239.59879   -269.93606    229018.04   -21149.545     1586.949   -22736.494    -589.8623     46.15337    78.592059    15.911468    29.692875 
    2200    236.43297   -475.88951    229018.04    -21195.61    1565.9806   -22761.591   -1366.4969    47.143245    78.595006    15.911248    29.677648 
    2400    232.02416   -248.42997    229018.04   -21214.292    1536.7796   -22751.071   -471.30845    46.586604    78.596163    15.912088    29.689578 
    2600    235.83049    -216.8243    229018.04   -21227.598    1561.9902   -22789.588   -352.58301    47.294654    78.593486    15.911005    29.675969 
    2800    238.20544   -358.47182    229018.04   -21219.223    1577.7203   -22796.943   -911.11336    47.796888    78.591507    15.910945    29.679504 
    3000    227.60019   -299.04059    229018.04   -21321.898     1507.478   -22829.376   -725.43589    47.923152    78.592729    15.907878    29.690311 
    3200    230.10579   -417.70002    229018.04   -21289.455    1524.0735   -22813.529   -1127.4005    49.145415    78.594872    15.908014    29.675922 
    3400    231.78897   -212.28024    229018.04    -21214.42    1535.2218   -22749.642   -339.53439    50.126382    78.594951    15.906833    29.668661 
    3600    236.04241   -175.72126    229018.04   -21222.383    1563.3939   -22785.777   -179.15972    51.100037    78.593655    15.909249    29.658771 
    3800    232.84092   -419.21466    229018.04   -21260.483    1542.1892   -22802.672   -1161.2525    52.134207    78.593266    15.909865    29.631854 
    4000    232.22693   -427.51522    229018.04    -21290.54    1538.1226   -22828.663   -1174.8059    53.041309    78.594417    15.910196    29.624169 
    4200    235.20121   -343.84205    229018.04   -21206.029    1557.8223   -22763.851   -854.02344    53.631529    78.593332    15.909701    29.624659 
    4400    243.92503   -414.54548    229018.04   -21166.551    1615.6033   -22782.155   -1121.0286    54.575844    78.591729    15.910062    29.631916 
    4600    229.54772   -216.07265    229018.04   -21259.125    1520.3772   -22779.503   -394.37668    54.665312    78.592147    15.910371    29.631586 
    4800    236.98762   -256.50905    229018.04   -21237.234    1569.6543   -22806.888   -474.23545    56.338268     78.59068    15.909919    29.602635 
    5000    232.96781    -335.6366    229018.04    -21248.53    1543.0296    -22791.56   -808.83585    57.043925    78.590193     15.91092     29.60105 
    5200    234.76004   -219.85852    229018.04   -21193.219    1554.9003    -22748.12   -388.88133    57.653335    78.591515    15.913421    29.608594 
    5400    234.47493   -251.08312    229018.04   -21226.742    1553.0119   -22779.754   -501.31301    58.856316    78.591137    15.913869    29.605698 
    5600    228.57284   -383.59548    229018.04   -21290.096    1513.9202   -22804.016   -979.68224    61.098497    78.590277    15.913491    29.621435 
    5800    240.05959   -205.02256    229018.04   -21139.435    1590.0011   -22729.436   -300.58351    62.695196    78.587167    15.912674    29.617664 
    6000    228.09828   -375.46734    229018.04    -21317.22     1510.777   -22827.997   -1007.8028     63.33163    78.587718    15.912022    29.615381 
    6200    233.11366   -347.54932    229018.04   -21249.966    1543.9956   -22793.962      -862.98    63.663661    78.585405    15.913104    29.618995 
    6400    236.46365    -565.1577    229018.04   -21202.978    1566.1838   -22769.162   -1704.7981    65.139653    78.583063     15.91181    29.615541 
    6600    230.76268   -365.74339    229018.04   -21288.541    1528.4243   -22816.966   -962.56749    66.287216    78.583293    15.908345    29.612684 
    6800    232.02438   -245.13909    229018.04   -21227.503     1536.781   -22764.284   -462.18879    67.581161     78.58502     15.90707    29.633934 
    7000    231.97442   -322.39243    229018.04     -21271.9    1536.4501    -22808.35   -749.67579    69.238323    78.586671    15.907068    29.631412 
    7200    238.98953   -318.05616    229018.04   -21201.941    1582.9137   -22784.855    -768.4698    70.744138      78.5874    15.903185     29.62203 
    7400    232.96958   -220.88493    229018.04   -21287.708    1543.0414   -22830.749   -376.03927    73.005185    78.588684    15.901707    29.648343 
    7600    226.67672   -246.64838    229018.04   -21316.458    1501.3615   -22817.819    -471.0498    74.252768    78.587476    15.899229    29.644115 
    7800    234.27221   -312.41351    229018.04   -21219.648    1551.6691   -22771.317   -743.55284    74.562135    78.586136    15.896637    29.613994 
    8000    237.03703   -272.27318    229018.04   -21216.521    1569.9816   -22786.503   -582.79207    75.681677    78.586423    15.894761    29.614878 
    8200    229.78065   -199.03554    229018.04   -21285.186      1521.92   -22807.106   -302.41454    76.644737    78.588278    15.893778    29.635138 
    8400    237.14032    -277.5555    229018.04   -21277.749    1570.6657   -22848.415    -582.6926    77.920198    78.589891    15.893893    29.635251 
    8600    237.85485   -429.02612    229018.04   -21238.081    1575.3983   -22813.479   -1184.9416    78.587792    78.589528    15.893082    29.664103 
    8800    239.11523   -206.38649    229018.04   -21245.261    1583.7462   -22829.007   -287.88386    79.619437    78.589363    15.890094    29.651299 
    9000    231.55531   -387.10486    229018.04   -21236.159    1533.6742   -22769.833    -1002.179    80.820078    78.588844    15.887251    29.663575 
    9200    233.96437   -245.50503    229018.04   -21259.699    1549.6303   -22809.329    -460.4126    82.118291    78.590361    15.883634    29.668261 
    9400    232.63818   -245.94025    229018.04   -21296.934    1540.8464   -22837.781   -456.03545     84.26293    78.591427    15.883261    29.650443 
    9600     234.8388   -456.65377    229018.04   -21323.498    1555.4219    -22878.92   -1312.9368    86.419702    78.591539    15.885211    29.652049 
    9800     234.2547   -162.92017    229018.04   -21296.003    1551.5532   -22847.556   -148.34553    87.521852    78.591841    15.887569    29.646997 
   10000    244.73212    -358.0885    229018.04   -21162.565    1620.9489   -22783.514   -936.31896    88.418762    78.594727    15.886455    29.635056 
   10200    235.25206   -129.42999    229018.04   -21225.558     1558.159   -22783.717   -46.667563    88.974653    78.594291    15.886115    29.635532 
   10400    236.01263    -239.0774    229018.04   -21269.868    1563.1966   -22833.064   -447.74186    89.642378    78.592792    15.884514    29.644928 
   10600    237.48641   -435.95812    229018.04   -21240.168     1572.958   -22813.126   -1208.3239    90.568538    78.591095    15.883559    29.643078 
   10800    242.20609   -234.78486    229018.04   -21265.664    1604.2181   -22869.882   -446.63229    91.411398    78.592043    15.881385    29.638551 
   11000    237.16856   -362.61835    229018.04   -21329.484    1570.8527   -22900.337   -890.45997    93.187848    78.591235    15.883392    29.663498 
   11200    236.77697   -155.22206    229018.04   -21343.279    1568.2591   -22911.538     -98.0088       95.665    78.594293    15.882476    29.639361 
   11400    233.20833   -384.48635    229018.04   -21332.519    1544.6227   -22877.142   -1045.8761    97.707787    78.595464    15.884689    29.628091 
   11600    239.50116   -223.18139    229018.04   -21273.073    1586.3024   -22859.376   -376.64978    97.454509    78.596585    15.889466       29.628 
   11800    235.55697   -335.81778    229018.04     -21294.6    1560.1786   -22854.778   -826.97697    98.405057     78.59325    15.890857    29.645197 
   12000    243.16771    -332.9018    229018.04   -21237.483    1610.5872    -22848.07   -823.97735    99.700872    78.593167    15.893962    29.673318 
   12200    236.01226   -368.36872    229018.04   -21337.924    1563.1942   -22901.119   -931.94746    100.97513    78.594447    15.895665    29.677578 
   12400    241.79539   -228.41588    229018.04   -21276.713    1601.4979   -22878.211   -358.10537    101.35301    78.594322    15.895595    29.672243 
   12600    242.89373   -303.60237    229018.04   -21264.542    1608.7726   -22873.314   -696.73948    102.33413     78.59755    15.895833     29.69027 
   12800    234.11365   -269.50886    229018.04    -21385.73     1550.619   -22936.349   -542.78223    103.81039     78.59749    15.894791    29.704259 
   13000     231.3658   -352.93209    229018.04   -21404.697     1532.419   -22937.116   -913.06815    104.83261    78.597866     15.89232    29.711795 
   13200    236.18856    -317.4969    229018.04   -21348.758    1564.3618    -22913.12    -711.7978    105.46623    78.597294    15.888392    29.719226 
   13400    239.39313   -361.36054    229018.04   -21298.105    1585.5869   -22883.692   -907.25876      107.941    78.600235    15.882668    29.724861 
   13600    234.32272   -313.08446    229018.04   -21304.661    1552.0037   -22856.665   -727.71057    109.16769    78.600304    15.878921    29.711792 
   13800    229.37885   -446.57583    229018.04   -21342.003    1519.2587   -22861.262   -1249.4099    109.90701    78.600213    15.877697    29.698648 
   14000    239.62582   -245.80896    229018.04   -21328.192     1587.128    -22915.32   -451.51454    109.82668    78.598326    15.878562    29.676011 
   14200    234.19686   -392.65159    229018.04   -21403.342    1551.1701   -22954.512   -1032.9399    109.66853    78.594505    15.877599    29.662455 
   14400    227.94921    -253.6029    229018.04    -21432.02    1509.7897   -22941.809   -507.39008    109.76332    78.593097    15.877844    29.659575 
   14600      232.513   -435.47866    229018.04   -21355.086    1540.0173   -22895.103   -1174.4954    110.86507    78.596181    15.875789    29.667566 
   14800    233.06363   -226.69473    229018.04   -21321.859    1543.6643   -22865.523   -410.00066    111.27411    78.595885    15.875452    29.661537 
   15000    232.46319   -369.80812    229018.04   -21288.748    1539.6873   -22828.436   -964.30339    112.68192    78.594548    15.874082    29.672653 
   15200    237.23939   -219.61816    229018.04   -21355.819    1571.3219   -22927.141   -363.72034    113.32655    78.594577    15.871643     29.69699 
   15400    236.70081   -208.78561    229018.04   -21298.508    1567.7547   -22866.263   -328.84875    114.75769     78.59616    15.868904    29.724821 
   15600    228.76488   -302.86279    229018.04   -21379.002    1515.1921   -22894.195   -714.74823    116.03674    78.598514    15.867385    29.725261 
   15800    242.42751   -447.54018    229018.04   -21262.865    1605.6847    -22868.55   -1259.2822    119.17255    78.597279    15.867966    29.742218 
   16000    238.25072   -269.56078    229018.04   -21309.977    1578.0202   -22887.998   -526.99506     121.3018    78.595074    15.873733    29.736777 
   16200    238.18175   -227.82412    229018.04   -21241.644    1577.5635   -22819.207   -439.67888     122.8131    78.594611    15.876377    29.739355 
   16400    240.77992   -319.56919    229018.04   -21234.907    1594.7721   -22829.679   -780.06309    124.95295    78.593466    15.876905    29.731293 
   16600    234.11154   -413.12003    229018.04   -21248.271     1550.605   -22798.876   -1104.0714    126.86074    78.592803    15.876201    29.726153 
   16800    239.11369   -310.66072    229018.04   -21239.271    1583.7361   -22823.007   -723.46126    128.97971    78.592972    15.874772    29.694298 
   17000    238.19095   -321.10758    229018.04   -21262.065    1577.6244   -22839.689   -761.13615    130.21933    78.593051    15.873936    29.692042 
   17200     236.6475   -268.34666    229018.04   -21301.744    1567.4016   -22869.145   -575.68248    132.03539    78.591434    15.872156    29.698125 
   17400    236.34066   -169.60937    229018.04   -21268.385    1565.3692   -22833.754   -210.94421    133.23794     78.59225    15.869931    29.714411 
   17600    235.41656   -421.40963    229018.04   -21231.411    1559.2486    -22790.66    -1150.787    135.31453    78.592234    15.867967    29.692747 
   17800     231.9056   -241.68061    229018.04   -21264.111    1535.9942   -22800.106   -463.13653    137.04049    78.592067    15.867473    29.698533 
   18000    234.92518   -256.76552    229018.04   -21275.211     1555.994   -22831.205   -518.37349    137.73768     78.59183    15.868074    29.702544 
   18200    226.32824   -342.35226    229018.04   -21334.075    1499.0534   -22833.128   -860.26131    138.22746    78.589561    15.871338    29.714723 
   18400    231.27889   -184.56226    229018.04   -21337.278    1531.8433   -22869.121   -235.89411    139.45566    78.588234    15.873813      29.6992 
   18600    231.69955   -348.04111    229018.04   -21251.341    1534.6295    -22785.97   -887.52387    143.33226    78.586913    15.876409    29.695155 
   18800    232.34536   -65.447206    229018.04   -21308.262    1538.9069   -22847.169    241.93325    144.29158    78.584853    15.877497    29.666538 
   19000    239.46307   -418.76329    229018.04   -21329.171    1586.0501   -22915.221   -1132.3545    145.59577    78.585218    15.880549    29.685488 
   19200    235.88727   -294.04383    229018.04   -21303.944    1562.3663   -22866.311   -672.93808    145.55114    78.585235     15.87972    29.685614 
   19400    238.08351   -152.27889    229018.04   -21268.555    1576.9128   -22845.468   -94.460919    146.51813    78.582898    15.879307    29.690092 
   19600    236.27962   -306.43966    229018.04   -21302.027    1564.9649   -22866.992   -755.69757    147.37825    78.583036    15.878917    29.679641 
   19800    236.49805   -269.96044    229018.04   -21314.464    1566.4117   -22880.876    -551.6976    146.21627    78.583999    15.878674     29.67644 
   20000    231.37816   -270.61294    229018.04   -21368.562    1532.5009   -22901.063   -570.22553    146.18784    78.586561     15.87784    29.647444 
   20200    234.48902   -182.80823    229018.04   -21324.013    1553.1052   -22877.118   -240.37128    147.59412     78.58802     15.87694    29.651042 
   20400    233.04295   -306.72278    229018.04    -21416.15    1543.5273   -22959.678   -699.59143    147.68637    78.588472     15.87508    29.655873 
   20600    229.97397   -243.24856    229018.04   -21342.518    1523.2004   -22865.718   -412.16982    148.58191    78.587924    15.874734    29.638547 
   20800    236.73185   -263.35348    229018.04   -21302.405    1567.9602   -22870.365   -530.22718    150.13845    78.586748    15.871596    29.656018 
   21000     231.4309   -298.33534    229018.04   -21312.309    1532.8501   -22845.159   -632.14374    150.12678    78.586501    15.872288    29.664389 
   21200    237.57318    -362.1447    229018.04   -21221.764    1573.5327   -22795.297   -959.57432    150.89299    78.586637    15.874255    29.682909 
   21400    229.78039   -334.98474    229018.04   -21304.417    1521.9182   -22826.335   -845.96022    150.38094    78.585348    15.878313    29.671216 
   21600    239.82729   -246.05454    229018.04   -21218.908    1588.4624    -22807.37   -473.01578    153.04884    78.584326    15.877226    29.664594 
   21800    239.66869   -214.62216    229018.04   -21222.956     1587.412   -22810.368   -343.82575    155.27971    78.583138    15.876022    29.657798 
   22000    236.54067   -195.31767    229018.04   -21250.216     1566.694    -22816.91   -268.72501    156.07735    78.582194    15.875125    29.674931 
   22200    235.15639   -371.80969    229018.04   -21233.661    1557.5254   -22791.187   -993.04895    156.84691    78.580751    15.872765     29.68867 
   22400    230.47207   -316.81048    229018.04   -21262.836    1526.4995   -22789.335   -749.77224    158.47243    78.578756    15.873854    29.691035 
   22600    233.71438   -333.40648    229018.04   -21218.583    1547.9745   -22766.558   -810.54065     159.6814    78.575705    15.872463    29.674775 
   22800    239.71685   -239.81765    229018.04   -21160.753     1587.731   -22748.484   -459.85643    161.57175    78.572334    15.871496    29.678086 
   23000    230.75376   -350.33719    229018.04   -21222.076    1528.3652   -22750.441   -835.08036    162.99626    78.568772    15.873144    29.665998 
   23200    229.61568   -270.44547    229018.04   -21269.595    1520.8273   -22790.422   -539.13093    163.05813     78.56914    15.873323    29.662142 
   23400     229.2357   -222.38053    229018.04   -21192.296    1518.3106   -22710.607   -381.79108    163.75993    78.568241    15.873958    29.694629 
   23600    227.49695   -294.09011    229018.04   -21281.145    1506.7942    -22787.94   -650.62618    164.19739    78.569546    15.874391    29.685869 
   23800    229.48108   -323.33562    229018.04   -21300.904    1519.9358    -22820.84   -782.15927    165.62049    78.571363     15.87144    29.707282 
   24000    239.68253   -250.77007    229018.04   -21258.404    1587.5036   -22845.908   -479.89142      166.589    78.572962    15.869948    29.727807 
   24200    233.46511   -186.32265    229018.04   -21282.266    1546.3235   -22828.589   -241.25935    166.39168    78.572746    15.870099    29.737662 
   24400    238.85172   -340.68804    229018.04   -21204.163    1582.0009   -22786.164   -830.87357    167.18492    78.572126    15.869113     29.72157 
   24600     236.5806   -186.09772    229018.04   -21283.632    1566.9585    -22850.59   -227.33419    169.30346    78.570801    15.866714    29.697537 
   24800    235.55943   -202.80659    229018.04   -21265.291    1560.1949   -22825.485   -303.01583    170.75274    78.569257     15.86741    29.662554 
   25000    241.03042   -263.21223    229018.04   -21247.481    1596.4313   -22843.912   -507.95789    172.23844    78.569844    15.866799     29.64825 
   25200    235.53359    -350.4882    229018.04   -21187.053    1560.0238   -22747.077   -883.72563    173.79055    78.569182    15.865858    29.633875 
   25400    233.60264   -308.09587    229018.04     -21233.7    1547.2344   -22780.934   -693.03621    173.35054    78.569045    15.862377    29.631387 
   25600    234.23757   -318.46712    229018.04   -21194.007    1551.4397   -22745.447   -708.59671    173.83587     78.56796    15.864579    29.636911 
   25800    235.73713   -299.42369    229018.04   -21213.731    1561.3718   -22775.103   -628.63109    176.72321    78.569076    15.866833    29.636576 
   26000    235.37973   -164.03209    229018.04   -21285.671    1559.0047   -22844.676   -126.86823    178.75887    78.570116    15.867865    29.663529 
   26200    229.92416   -427.94694    229018.04   -21230.916    1522.8705   -22753.787   -1156.8401    178.77462    78.569956    15.866905    29.671379 
   26400    233.64046   -231.52111    229018.04   -21311.725    1547.4848    -22859.21   -429.00975    179.15162    78.570691    15.868363    29.674941 
   26600    236.60769   -246.02093    229018.04   -21281.524    1567.1379   -22848.662   -450.71784    180.18785    78.571241    15.870919    29.680036 
   26800    234.29876   -262.72498    229018.04   -21214.909     1551.845   -22766.754   -514.35589     181.0413    78.572139    15.869887    29.672723 
   27000     236.1969   -364.50036    229018.04   -21231.464    1564.4171   -22795.881   -903.52364    181.60903     78.57158    15.870566    29.661378 
   27200    241.56298   -226.60334    229018.04   -21159.092    1599.9586   -22759.051   -364.35344    182.48676    78.572092    15.872498    29.658699 
   27400    232.89955   -291.66768    229018.04   -21244.794    1542.5776   -22787.372   -617.95769    185.50305    78.575139    15.872131    29.664094 
   27600    239.85592   -254.26168    229018.04   -21261.614    1588.6521   -22850.266   -497.21339    186.29906    78.574987    15.873747    29.668584 
   27800    225.01487    -300.0654    229018.04   -21352.418    1490.3545   -22842.773   -635.15943    186.78671    78.575564     15.87419    29.655587 
   28000    236.13349   -400.07675    229018.04   -21291.761    1563.9971   -22855.758   -1078.1262    187.83737    78.576381    15.875278     29.65288 
   28200     238.2491   -321.40063    229018.04   -21215.272    1578.0095   -22793.281   -735.26238    187.80596    78.576422    15.873948     29.66092 
   28400     235.8691   -187.48022    229018.04   -21216.927    1562.2459   -22779.173   -186.83249     188.8606    78.576933    15.874966    29.672427 
   28600    239.98724   -296.80408    229018.04   -21219.288    1589.5219    -22808.81   -684.02428    189.99855    78.576669    15.875474    29.694292 
   28800     231.7465   -373.23322    229018.04   -21314.844    1534.9405   -22849.784    -952.5692    191.78789    78.576521    15.876586    29.690593 
   29000    236.31305   -321.68308    229018.04   -21242.314    1565.1864   -22807.501   -738.24272    193.42099     78.57477    15.878044     29.69482 
   29200    231.29474   -540.85681    229018.04   -21283.349    1531.9483   -22815.297   -1629.2251    194.71377    78.571169    15.877549    29.700426 
   29400    235.43249   -271.82501    229018.04     -21255.1    1559.3541   -22814.454   -575.62135    195.88385    78.569045    15.879235     29.70594 
   29600    232.66304    -183.6138    229018.04   -21297.233     1541.011   -22838.244   -263.88326    197.70208     78.56715    15.881818    29.710673 
   29800    234.99124   -384.51519    229018.04   -21285.616    1556.4316   -22842.048   -994.98685    197.32247    78.566974    15.883558    29.718047 
   30000    233.68162   -308.65621    229018.04   -21297.159    1547.7575   -22844.917   -690.78912    198.44136    78.566857     15.88222    29.743571 
   30200    233.26072   -398.28001    229018.04   -21300.587    1544.9697   -22845.557   -1055.6278    199.61006    78.566343    15.879852    29.743257 
   30400    232.15991   -228.50877    229018.04   -21335.221    1537.6787     -22872.9   -382.35654    199.21909    78.566452     15.87883    29.731985 
   30600    224.73019   -263.61634    229018.04   -21389.845     1488.469   -22878.314   -542.16304    199.92164     78.56563    15.878826    29.747533 
   30800    232.30338   -160.87429    229018.04   -21302.836    1538.6289   -22841.465    -134.9973    202.06635    78.565739    15.879973    29.715463 
   31000    230.66146   -388.04316    229018.04    -21238.88    1527.7539   -22766.634   -1024.8261    204.41481    78.565316      15.8796    29.708377 
   31200    238.66239   -263.65162    229018.04   -21181.166    1580.7469   -22761.913   -526.55705    207.14672    78.563597    15.877784    29.740972 
   31400    235.71272   -343.58668    229018.04   -21220.623    1561.2102   -22781.833   -848.78816    207.43155    78.565671    15.876501    29.753605 
   31600     235.6074   -263.30388    229018.04   -21186.282    1560.5126   -22746.795   -517.79492    207.49744    78.567632    15.876705    29.750799 
   31800    236.60325   -252.25572    229018.04   -21278.728    1567.1085   -22845.836   -480.10683    208.62464    78.567332    15.877336    29.785434 
   32000     236.9546   -245.95111    229018.04   -21300.835    1569.4356   -22870.271   -433.53087    210.66652     78.56644    15.873881    29.777133 
   32200    229.19384   -95.603848    229018.04   -21347.774    1518.0333   -22865.807    170.30492    211.33083    78.566408    15.870962    29.777301 
   32400    238.57366   -300.82323    229018.04   -21327.722    1580.1592   -22907.881   -648.69648      211.668    78.566244    15.872328    29.763365 
   32600    229.58832   -416.88551    229018.04   -21319.695    1520.6461   -22840.341   -1087.9249    212.09577    78.566244    15.872554    29.752138 
   32800    234.18067     -288.403    229018.04   -21278.093    1551.0629   -22829.156   -593.44036    213.41151    78.565824    15.873322    29.736183 
   33000    230.73672    -372.8166    229018.04    -21270.17    1528.2524   -22798.423    -915.7895    215.65595    78.565673    15.873848    29.733954 
   33200    235.80898   -209.06649    229018.04   -21264.137    1561.8478   -22825.985   -298.64784    214.84168    78.565852    15.875152    29.724362 
   33400    227.37702   -253.26049    229018.04   -21252.213    1505.9999   -22758.213   -456.95298    214.53664    78.566066    15.874238    29.719722 
   33600    228.55587   -319.44206    229018.04   -21298.173    1513.8078    -22811.98   -748.74177    215.44205    78.566831    15.873932    29.699844 
   33800    233.80523    -350.4334    229018.04     -21221.5    1548.5762   -22770.076    -830.9399    216.88313    78.568404    15.871956    29.698641 
   34000    234.65032   -384.73456    229018.04   -21269.137    1554.1735    -22823.31   -996.93116     216.9488    78.570303    15.871255    29.692201 
   34200    234.09109   -372.83382    229018.04   -21264.261    1550.4695    -22814.73   -939.61136    217.29209    78.569468    15.872629    29.672509 
   34400    236.55962   -327.17474    229018.04   -21250.229    1566.8195   -22817.049   -740.63695    218.35529    78.568492    15.872281    29.699361 
   34600    237.40803   -95.750894    229018.04    -21229.74    1572.4389   -22802.179    140.76748      218.064    78.570324    15.870175    29.712143 
   34800    234.25742   -400.28892    229018.04   -21229.269    1551.5712    -22780.84   -1047.0319      219.259     78.57187    15.867924    29.727568 
   35000    239.11595   -333.14265    229018.04   -21218.012     1583.751   -22801.763   -859.70415    219.32693    78.570306    15.867718    29.725434 
   35200    236.34412   -356.97349    229018.04   -21214.888    1565.3922   -22780.281   -878.53104    221.02118    78.569596    15.863541    29.717601 
   35400    237.58607   -223.77863    229018.04   -21158.538    1573.6181   -22732.156   -383.84164    222.79315    78.569099    15.863242    29.723659 
   35600    233.22488   -261.81302    229018.04   -21263.977    1544.7323    -22808.71   -515.86637    224.77217    78.568732    15.862573    29.742236 
   35800    230.92764   -312.09031    229018.04   -21250.844    1529.5169   -22780.361   -693.69831    225.68388    78.567564    15.860631    29.745937 
   36000     231.6516   -446.72347    229018.04   -21342.722    1534.3119   -22877.034   -1257.7055    227.30793    78.565806    15.860252    29.731625 
   36200    236.31973   -212.05048    229018.04    -21353.95    1565.2306    -22919.18   -329.92802    228.34153    78.566456    15.856725    29.753119 
   36400     231.8013    -160.2391    229018.04   -21300.355    1535.3034   -22835.658   -152.44238    229.27367    78.567267    15.854896    29.733546 
   36600    227.93026    -316.1974    229018.04     -21333.1    1509.6642   -22842.765   -721.34769    229.14462    78.567035    15.854741    29.745285 
   36800    232.05313   -289.22183    229018.04   -21318.592    1536.9714   -22855.563   -634.79122    231.13634    78.565312    15.855632    29.746975 
   37000    233.98264   -363.65541    229018.04   -21274.889    1549.7513    -22824.64   -909.92258    231.78293    78.564054    15.860613    29.752618 
   37200    232.41988   -389.35294    229018.04    -21364.26    1539.4005   -22903.661   -1021.9089    234.56079    78.565567    15.862655     29.75725 
   37400    234.80173   -340.78945    229018.04   -21297.524    1555.1763     -22852.7   -862.20904    236.08924     78.56638    15.863702    29.774219 
   37600    231.24123   -354.81866    229018.04   -21266.223    1531.5939   -22797.817    -888.1723    236.95794    78.568647    15.865651    29.762834 
   37800    235.61633    -336.5527    229018.04   -21336.297    1560.5717   -22896.869   -812.43599    238.65592     78.56848    15.867364    29.754664 
   38000    233.00505   -252.04931    229018.04   -21267.264    1543.2763   -22810.541   -519.28154    240.65073    78.569481    15.871275    29.758889 
   38200    235.31169   -265.45733    229018.04   -21276.954     1558.554   -22835.508   -541.60987    241.71846    78.569589    15.871554    29.750644 
   38400     227.7934   -345.52101    229018.04   -21274.215    1508.7577   -22782.972   -862.65177    243.01315    78.568712    15.871592    29.769119 
   38600      229.267   -314.32443    229018.04   -21265.755    1518.5179   -22784.273   -706.02217    243.18411    78.567169    15.873649    29.793436 
   38800    239.33796   -211.56382    229018.04   -21252.601    1585.2214   -22837.822   -356.98467    243.22826    78.565679    15.876627    29.801706 
   39000    239.15879   -185.60627    229018.04   -21239.323    1584.0347   -22823.357   -250.54075    243.86553    78.567468    15.877847    29.790339 
   39200    227.55155   -434.84603    229018.04   -21353.337    1507.1558   -22860.493   -1213.6408     245.1628    78.568784    15.880184    29.757918 
   39400    227.44744   -288.70725    229018.04    -21283.39    1506.4663   -22789.856   -670.28411    246.16169    78.569298    15.879218    29.747755 
   39600    234.01638   -144.99966    229018.04   -21223.822    1549.9747   -22773.797     -103.457      248.874    78.570847    15.877699    29.733193 
   39800    245.21082   -243.75729    229018.04   -21067.878    1624.1196   -22691.997   -488.91638    251.36282    78.569691    15.876935    29.740122 
   40000    232.06127   -229.79803    229018.04   -21216.618    1537.0253   -22753.644   -399.48494    251.51577    78.570091    15.877174    29.753758 
   40200    230.15919   -309.08686    229018.04   -21317.192    1524.4271   -22841.619   -727.81528    252.48301    78.570703    15.875645    29.730499 
   40400    236.91408   -106.70038    229018.04   -21215.249    1569.1672   -22784.416    98.195732    252.81881    78.572919    15.876471    29.760195 
   40600    230.00539   -226.57608    229018.04   -21284.192    1523.4085     -22807.6   -342.47439     253.5333    78.574294    15.876926    29.775874 
   40800     233.0307    -310.3809    229018.04   -21249.627    1543.4462   -22793.073   -712.11413    253.43443    78.575587    15.877425    29.806494 
   41000    233.35433   -523.22833    229018.04    -21162.42    1545.5897    -22708.01   -1562.6176    255.02441    78.574796    15.876482     29.79948 
   41200    239.45298   -284.52303    229018.04   -21176.027    1585.9832   -22762.011   -615.71409    255.19079    78.576769    15.877558    29.817838 
   41400    233.11764   -241.77324    229018.04   -21232.825     1544.022   -22776.847   -470.13752    256.02663    78.575751    15.876951    29.809925 
   41600    238.86295   -389.15504    229018.04   -21127.261    1582.0753   -22709.336   -1031.1081    256.78736    78.575069    15.879512    29.802277 
   41800    233.57197   -174.30379    229018.04   -21197.115    1547.0312   -22744.147   -183.04236    259.51211    78.577206    15.883451    29.830808 
   42000     232.3301    -306.5843    229018.04   -21232.598    1538.8059   -22771.404   -685.22999    259.57744    78.577428    15.884267    29.844711 
   42200    232.42651   -12.600713    229018.04   -21214.259    1539.4444   -22753.703    409.27561    258.73908    78.577057    15.882562    29.838968 
   42400    236.92995   -276.21255    229018.04   -21224.597    1569.2724   -22793.869   -604.21356    259.12752    78.574696    15.885663    29.859358 
   42600    230.71069   -337.88731    229018.04   -21272.749    1528.0799   -22800.829   -825.49762    258.84792    78.572308    15.886572    29.869859 
   42800    243.29742   -211.19099    229018.04   -21160.388    1611.4464   -22771.834   -347.92396    260.45422    78.572657    15.887211    29.881211 
   43000    240.21497    -200.5183    229018.04   -21135.723    1591.0302   -22726.754   -288.15964     262.4022    78.571515    15.887743    29.873148 
   43200    235.74749   -267.19698    229018.04   -21162.302    1561.4405   -22723.743   -576.42392    262.91621    78.571001    15.885432    29.856231 
   43400    231.95466   -351.01534    229018.04   -21210.896    1536.3192   -22747.215   -889.49742    263.90374    78.571248    15.884662    29.866106 
   43600    231.47734   -415.15465    229018.04   -21223.585    1533.1577   -22756.743   -1161.2441    265.28625    78.570338    15.884421    29.859326 
   43800    237.62837   -410.21711    229018.04   -21192.901    1573.8982   -22766.799    -1108.518    266.55541    78.568717    15.887588    29.872552 
   44000    226.09848   -326.83158    229018.04   -21281.122    1497.5316   -22778.654   -810.86689    267.13505    78.570611    15.887129    29.874554 
   44200    230.93315   -181.27218    229018.04   -21199.373    1529.5534   -22728.926   -195.74735    269.46627    78.571883    15.888054    29.872551 
   44400    237.44474   -217.19555    229018.04   -21181.439     1572.682   -22754.121   -359.84272    271.10917    78.570276    15.888643    29.849658 
   44600    234.16589   -223.50047    229018.04   -21158.151     1550.965   -22709.116   -382.57881    272.06228     78.57041    15.889381    29.882072 
   44800     232.8467   -545.75257    229018.04   -21211.376    1542.2275   -22753.603   -1628.0721     275.5931    78.570852    15.887543    29.885502 
   45000    237.68909   -282.15245    229018.04   -21244.823    1574.3004   -22819.124    -592.0291    276.10976    78.570158    15.883601    29.877098 
   45200    240.11628   -194.85533    229018.04   -21149.907    1590.3765   -22740.284   -323.32389    276.08473    78.571809    15.881062    29.886612 
   45400    246.49412   -208.64558    229018.04   -21102.532    1632.6193   -22735.152   -330.97039    276.89912    78.573335    15.880678    29.885769 
   45600    239.73088     -387.286    229018.04   -21122.874    1587.8239   -22710.698    -1034.202    279.53779    78.572545    15.881331    29.885234 
   45800    226.68174   -343.06602    229018.04   -21156.934    1501.3948   -22658.329   -855.44752    280.12895    78.570783    15.883727    29.887982 
   46000    235.42848   -225.91256    229018.04   -21181.754    1559.3275   -22741.081   -415.89286    281.95313    78.569806    15.884785    29.894026 
   46200    237.09165   -500.14973    229018.04   -21159.393    1570.3433   -22729.737   -1443.8882    283.70068    78.568308    15.885256    29.899019 
   46400    243.31862   -311.12777    229018.04   -21157.441    1611.5868   -22769.028   -699.65376    284.42098    78.567223    15.883285     29.89541 
   46600    236.30783   -146.98853    229018.04    -21202.64    1565.1518   -22767.792   -100.15895     285.8323     78.56657    15.881378    29.895662 
   46800    238.28509   -337.84788    229018.04   -21160.689    1578.2479   -22738.937   -842.29185    288.01359     78.56628    15.880348    29.886773 
   47000     241.7143   -288.85122    229018.04   -21138.834    1600.9608   -22739.795   -640.08839    289.24704    78.566604    15.879186    29.854003 
   47200    232.75247   -289.30313    229018.04   -21219.027    1541.6034    -22760.63   -628.61638    291.63729    78.567899     15.88198    29.875789 
   47400    233.68055   -354.02954    229018.04   -21264.298    1547.7504   -22812.048     -896.726    291.49154    78.568366    15.883018    29.863928 
   47600    239.93639   -145.20779    229018.04   -21250.758    1589.1851   -22839.943   -87.904612    290.87996    78.568851    15.882829     29.85928 
   47800    234.71926   -400.58097    229018.04   -21246.422    1554.6301   -22801.052   -1031.1564     293.1865    78.569345    15.883241    29.864811 
   48000    233.93421    -178.6504    229018.04    -21282.97    1549.4305   -22832.401   -206.71498    293.98139    78.570624    15.885517    29.858303 
   48200    236.60923   -311.72347    229018.04   -21320.193    1567.1481   -22887.341   -727.84603    294.87279    78.571959    15.888514    29.855183 
   48400    233.48597   -388.88806    229018.04    -21355.71    1546.4616   -22902.171   -988.18061    297.02517    78.572829    15.890902    29.842995 
   48600    238.85666   -178.18974    229018.04   -21347.126    1582.0336   -22929.159   -190.85906    297.52439    78.571317    15.897044     29.83973 
   48800    236.10576   -423.15239    229018.04    -21333.81    1563.8134   -22897.624   -1141.0782    298.00717    78.569497    15.901464    29.822632 
   49000    237.68856    -173.6265    229018.04   -21372.608    1574.2969   -22946.905   -183.13919    296.61034    78.571275    15.901919    29.826258 
   49200    236.38771    -207.8903    229018.04   -21375.923    1565.6809   -22941.604   -296.84015    297.96144    78.571748    15.902804    29.839835 
   49400    236.52181   -331.31255    229018.04   -21324.649    1566.5691   -22891.218   -812.46952    299.37952    78.573064    15.904971    29.848724 
   49600    230.79123    -117.8361    229018.04   -21310.325    1528.6134   -22838.938    38.248614    299.24158    78.572077    15.904635     29.84695 
   49800    226.36743    -267.2663    229018.04   -21330.026     1499.313   -22829.339   -555.68417    301.00761     78.57177    15.903702    29.859644 
   50000    235.59221   -479.44666    229018.04   -21286.555     1560.412   -22846.967   -1406.9462    302.38712    78.573008    15.903233    29.862632 
   50200    237.40894   -332.56748    229018.04   -21313.472    1572.4448   -22885.917   -790.36398    302.76487    78.571755    15.901832    29.851682 
   50400    229.20202   -252.40251    229018.04   -21282.244    1518.0875   -22800.332   -480.64667    303.62572     78.57273    15.902416    29.844874 
   50600     236.5706   -184.43544    229018.04   -21330.796    1566.8923   -22897.688   -238.79501    303.17862    78.573726    15.901878    29.811844 
   50800    229.73691   -296.56241    229018.04   -21351.539    1521.6302   -22873.169   -683.70946    302.55716    78.572241    15.903585    29.807632 
   51000    236.41441   -165.42993    229018.04   -21304.968    1565.8577   -22870.825    -180.6975    303.48649    78.575152    15.907777    29.784173 
   51200    233.99676   -203.92395    229018.04   -21255.028    1549.8448   -22804.872   -329.96845    303.99142    78.577341    15.906572    29.777407 
   51400     236.7944   -96.579021    229018.04   -21300.728    1568.3746   -22869.103     113.1842    304.57265    78.577357    15.906068    29.777946 
   51600    231.53079   -232.44659    229018.04   -21297.835    1533.5117   -22831.346   -425.36114    304.90305     78.57662    15.908021    29.769785 
   51800    236.16085    -141.1962    229018.04   -21250.179    1564.1783   -22814.358   -20.436803    305.77267    78.575959    15.910396    29.786777 
   52000    239.20443   -138.55198    229018.04   -21243.411    1584.3371   -22827.748   -32.856748    307.26867    78.574175    15.912797    29.820198 
   52200    233.07773   -347.72263    229018.04   -21211.454    1543.7577   -22755.212   -862.49074     308.0744    78.573964    15.912114    29.836799 
   52400    236.20507   -343.51677    229018.04   -21202.383    1564.4712   -22766.854   -817.06258    308.68816    78.575115     15.90888    29.810751 
   52600    236.30035    -392.9335    229018.04   -21163.944    1565.1023   -22729.046   -1032.4554    310.94297     78.57694    15.908715    29.808409 
   52800    228.78144   -225.68623    229018.04   -21295.785    1515.3018   -22811.087   -409.10536    311.37468    78.578857    15.905974    29.825719 
   53000    236.73188   -283.87492    229018.04   -21271.813    1567.9605   -22839.773   -572.69999    313.30992    78.578051    15.907095    29.816794 
   53200     235.7577   -153.23773    229018.04   -21273.642    1561.5081    -22835.15   -129.69077     314.3848    78.579001    15.904523      29.8331 
   53400    231.54362   -373.68798    229018.04   -21256.337    1533.5968   -22789.934   -960.84041    315.68522    78.579569    15.904533    29.849655 
   53600    236.84334   -321.65932    229018.04   -21244.612    1568.6987    -22813.31   -742.21169    316.57486    78.578536    15.908323    29.856052 
   53800     229.2672   -443.49363    229018.04   -21254.184    1518.5192   -22772.703   -1212.7229    317.14683     78.57646    15.907189    29.840111 
   54000    239.25662   -294.15377    229018.04   -21194.714    1584.6827   -22779.397   -653.11426    316.95375    78.575946     15.90648    29.861737 
   54200    235.38397   -376.95886    229018.04   -21284.977    1559.0327    -22844.01   -962.04627    318.70483    78.575575    15.908101    29.872453 
   54400    230.64073   -297.77045    229018.04   -21332.577    1527.6166   -22860.193   -699.29761    318.28993    78.575201    15.908049     29.88351 
   54600    237.99328   -445.02024    229018.04   -21249.402    1576.3151   -22825.717   -1237.8075    320.07033    78.572611    15.909174    29.865965 
   54800     237.2462   -296.48824    229018.04   -21256.699    1571.3669   -22828.066   -706.15085    320.26946    78.572739    15.910262     29.87174 
   55000    236.62094   -359.13197    229018.04   -21296.048    1567.2257   -22863.273    -899.4465    322.66673     78.57188     15.91328    29.887911 
   55200    240.02414   -291.19868    229018.04   -21247.232    1589.7663   -22836.998   -627.34779    323.35927    78.571216    15.915964    29.876967 
   55400    238.88557   -218.09388    229018.04   -21234.104    1582.2251   -22816.329   -365.78951    324.62025     78.56996    15.914386    29.899731 
   55600    237.03272    -240.6584    229018.04   -21205.314    1569.9531   -22775.267   -455.62719    324.84509    78.569973    15.916863    29.914813 
   55800     231.0014   -366.85816    229018.04   -21222.535    1530.0054    -22752.54   -971.79742    325.60715    78.570394    15.919339    29.932945 
   56000    234.05761   -160.64445    229018.04   -21233.623    1550.2478   -22783.871   -132.21943    327.83101     78.57343    15.919501    29.941017 
   56200    238.52656   -343.80131    229018.04   -21183.283    1579.8473    -22763.13   -871.53796    330.50992    78.573113    15.923226    29.960118 
   56400    229.16213   -329.90089    229018.04   -21192.673    1517.8232   -22710.496   -782.32692    330.46701    78.573059    15.926807    29.966421 
   56600    233.20391   -224.25738    229018.04   -21281.084    1544.5935   -22825.677   -354.62025    330.86932    78.572922    15.926538    29.968568 
   56800     229.8102   -201.16801    229018.04   -21280.437    1522.1157   -22802.553   -309.81315    331.10166    78.571725    15.926209    29.980869 
   57000      223.987   -188.20607    229018.04   -21328.871    1483.5466   -22812.417   -227.44506    331.13439     78.57132    15.925399    29.981506 
   57200    230.63993   -382.10612    229018.04   -21315.927    1527.6113   -22843.539   -969.59659    332.37681    78.568453    15.925292    29.978626 
   57400    236.26117   -179.89799    229018.04   -21327.401    1564.8428   -22892.244   -210.75665    334.70899    78.568649    15.926389    29.992814 
   57600    239.84803   -225.88524    229018.04    -21230.99    1588.5998    -22819.59   -372.25403    334.78779    78.570342    15.926101    29.988933 
   57800    233.80539   -466.14061    229018.04   -21217.063    1548.5773    -22765.64   -1358.8239    334.30135    78.569085    15.924075    29.984461 
   58000    233.11759   -332.66079    229018.04   -21236.902    1544.0217   -22780.924   -805.27522    334.84278    78.567905    15.923075    29.986735 
   58200    241.49411   -390.56347    229018.04   -21236.437    1599.5024   -22835.939   -988.84543      337.198    78.567204     15.92328    30.003391 
   58400    232.61818   -341.30608    229018.04   -21350.287    1540.7139       -22891   -850.00603    337.97638    78.567984    15.922467    30.015109 
   58600    237.72632   -229.62914    229018.04   -21309.845     1574.547   -22884.392   -432.18421    336.79553    78.568976    15.921095    30.002163 
   58800    229.33994   -276.92931    229018.04   -21329.623     1519.001   -22848.624   -563.21758    337.48215    78.569523    15.919431    29.976646 
   59000    235.95895   -168.15386    229018.04   -21302.119    1562.8411    -22864.96   -137.17403    336.80358    78.568951     15.91735    29.991851 
   59200    232.13223    -158.0292    229018.04   -21285.196    1537.4953   -22822.691   -160.97866    337.60186     78.57083    15.917349    29.999164 
   59400    236.54431   -309.28896    229018.04   -21231.207    1566.7181   -22797.925   -770.73583    339.50136    78.571081     15.91456    30.008343 
   59600    239.37747   -372.22189    229018.04   -21159.178    1585.4832   -22744.661   -957.79559    341.34724    78.572748    15.913062    30.028006 
   59800    238.97451   -280.17308    229018.04   -21135.335    1582.8142    -22718.15   -635.80133    340.39064     78.57331    15.911911    30.029173 
   60000    227.50877   -369.29351    229018.04    -21261.41    1506.8725   -22768.282   -935.93554    341.75577     78.57223    15.910901    30.039944 
   60200    238.21818   -246.49219    229018.04   -21176.345    1577.8047    -22754.15   -495.36944    341.99659    78.573003    15.907038    30.037677 
   60400    235.46461   -218.35198    229018.04   -21243.297    1559.5669   -22802.864   -344.14888    343.13644    78.573622    15.906383    30.025965 
   60600    236.35835   -124.39057    229018.04   -21275.407    1565.4865   -22840.893    3.8006596    342.56126    78.572309    15.907014    30.006142 
   60800     227.6007    -288.3521    229018.04   -21278.115    1507.4814   -22785.596   -631.49532    344.78767    78.573068    15.908321    29.986582 
   61000    233.73159   -511.00624    229018.04   -21282.429    1548.0884   -22830.517   -1498.7025    347.48469    78.573671    15.908178    30.010982 
   61200    225.11544   -336.64808    229018.04   -21353.245    1491.0206   -22844.266   -852.79346    348.41712    78.576046    15.908053     29.99948 
   61400    234.19208   -352.93767    229018.04   -21261.241    1551.1384   -22812.379   -868.29591    350.56596    78.578528    15.906856    29.985437 
   61600    233.55237   -268.39359    229018.04   -21256.367    1546.9014   -22803.269   -580.75662    350.87745    78.579801    15.907325    29.973076 
   61800    238.54477   -204.83847    229018.04   -21216.869    1579.9679   -22796.837   -283.35617    352.60338    78.579546    15.910652    29.950694 
   62000    231.46586   -432.96828    229018.04   -21323.244    1533.0817   -22856.325    -1217.098    353.80168    78.579536    15.911453    29.944638 
   62200    234.16693   -244.64617    229018.04   -21242.112    1550.9718   -22793.084   -431.43081    354.34453    78.578422    15.912009    29.954012 
   62400    236.90005   -309.57114    229018.04   -21185.076    1569.0743    -22754.15   -687.08742     355.4341    78.578946    15.910879    29.937953 
   62600     239.2833   -363.05212    229018.04   -21196.199    1584.8594   -22781.058   -951.27997    356.21544     78.57961    15.912168    29.931881 
   62800    238.29242   -333.12931    229018.04   -21191.842    1578.2965   -22770.138   -812.16859    356.33567    78.578548    15.915405    29.879405 
   63000     232.3232   -235.43095    229018.04   -21238.295    1538.7602   -22777.055   -418.14937    357.03593    78.576737    15.915649    29.890563 
   63200    227.20268   -398.67011    229018.04   -21381.702    1504.8451   -22886.547   -1078.6774    358.20846    78.578014    15.914661     29.89292 
   63400    232.92164    -278.6694    229018.04   -21251.097    1542.7238   -22793.821   -599.05627    360.05207    78.579474    15.917303    29.898628 
   63600    239.45915   -207.31023    229018.04   -21264.798    1586.0242   -22850.822   -325.14326    361.83133    78.581356    15.918353    29.926141 
   63800     233.8317    -267.3582    229018.04   -21175.022    1548.7515   -22723.773   -548.93628     360.4741    78.579832    15.918181     29.90751 
   64000    233.89619   -361.79891    229018.04   -21214.247    1549.1786   -22763.426   -917.65207    359.99428    78.578913    15.918907    29.915732 
   64200    237.20478   -371.58344    229018.04   -21193.266    1571.0927   -22764.358   -953.24649    358.98028    78.579625    15.918697     29.89601 
   64400    237.19837   -315.31615    229018.04   -21142.848    1571.0502   -22713.898    -721.4212      361.919    78.580393    15.916393    29.877533 
   64600    242.83507   -264.62445    229018.04   -21188.406     1608.384    -22796.79   -553.68439    363.72896    78.579165    15.912801    29.861882 
   64800    236.05834   -384.05437    229018.04    -21152.82    1563.4994    -22716.32    -970.1437    367.36114    78.579443    15.912961    29.871955 
   65000    233.77269   -164.85742    229018.04   -21206.364    1548.3607   -22754.724   -135.95416    368.45223    78.582214     15.91225    29.880802 
   65200    238.49972   -352.09975    229018.04   -21221.221    1579.6695    -22800.89   -883.21732    368.58692    78.581938    15.913314    29.876291 
   65400      241.027   -208.32144    229018.04   -21145.034    1596.4086   -22741.443   -313.60404    369.76416    78.581977    15.913422    29.896769 
   65600    233.29262   -358.29611    229018.04   -21149.075     1545.181   -22694.256   -896.56675    371.42436      78.5813    15.911089    29.932074 
   65800    234.50609   -412.83358    229018.04   -21229.544    1553.2182   -22782.763    -1117.725    372.33398    78.582852    15.909348    29.934465 
   66000    233.60436   -302.22418    229018.04   -21268.457    1547.2457   -22815.702   -723.97973    373.16099    78.582362    15.909983      29.9154 
   66200    238.21017   -407.47672    229018.04   -21223.707    1577.7517   -22801.458   -1081.4932    374.71663    78.579478    15.912282    29.926243 
   66400    231.38896   -240.28269    229018.04   -21317.976    1532.5724   -22850.548   -418.21241    375.99983    78.578071    15.912197    29.928656 
   66600    233.71696   -288.23651    229018.04   -21279.113    1547.9916   -22827.105   -621.66774    375.87977    78.579646    15.911116    29.924179 
   66800    227.30494   -176.64493    229018.04   -21326.883    1505.5224   -22832.405   -185.36251    377.28468    78.581531    15.911672      29.9039 
   67000    236.31422   -331.10008    229018.04   -21293.516    1565.1941    -22858.71   -776.90674    377.93038     78.58155    15.910584     29.90466 
   67200    229.49451   -148.31047    229018.04   -21339.859    1520.0248   -22859.884   -66.443164     378.8332    78.583342    15.910448    29.889964 
   67400    234.30717   -182.36099    229018.04   -21253.578    1551.9007   -22805.479    -222.2206    380.37459    78.584032    15.909421    29.882517 
   67600    231.82069   -289.59061    229018.04   -21286.229    1535.4319    -22821.66   -621.72249    382.41986    78.582867    15.909309    29.875334 
   67800    231.46069   -387.69321    229018.04   -21256.718    1533.0475   -22789.765   -1036.9919    382.33299    78.585786    15.910427    29.858639 
   68000    236.76146    -315.7376    229018.04   -21247.975    1568.1564   -22816.131   -744.03597    383.38843    78.585561    15.909793    29.867323 
   68200    233.72646   -376.10826    229018.04   -21286.899    1548.0544   -22834.954   -959.12408    386.40637    78.584572    15.910597    29.854512 
   68400    240.20123   -374.61165    229018.04   -21164.199    1590.9392   -22755.138   -958.20468     386.8104    78.582244    15.911917    29.860393 
   68600     235.7876   -325.11791    229018.04   -21186.685    1561.7061   -22748.392    -753.0706    387.86981    78.579583    15.911505    29.864727 
   68800    237.68247   -436.86749    229018.04   -21151.536    1574.2566   -22725.793    -1235.912    388.28832    78.578587    15.909314    29.866929 
   69000      238.314   -467.25945    229018.04   -21166.994    1578.4394   -22745.434   -1296.6226    388.28353    78.579961    15.909186    29.853197 
   69200    243.32919    49.937037    229018.04   -21215.793    1611.6568    -22827.45    670.79049    386.67779    78.581078    15.908054    29.847225 
   69400    233.71516    -332.8342    229018.04   -21225.935    1547.9796   -22773.915   -805.22802    388.60769    78.581279    15.907448    29.832587 
   69600    234.58212   -316.89146    229018.04   -21255.186    1553.7218   -22808.908   -742.17288    389.14307     78.58307    15.907307    29.824867 
   69800    235.17562   -232.47964    229018.04    -21232.31    1557.6528   -22789.963   -393.50389    390.88251    78.585242    15.905807    29.824436 
   70000     228.2394    -209.4115    229018.04   -21306.929    1511.7117    -22818.64   -318.97169    390.76731    78.585664    15.906185    29.825907 
   70200    233.15309   -304.19413    229018.04   -21293.944    1544.2568   -22838.201   -694.17325    391.03163    78.586729    15.906309    29.845595 
   70400    235.15745   -474.30751    229018.04   -21274.189    1557.5325   -22831.721     -1378.79    391.99228    78.585497      15.9087    29.848476 
   70600    232.21815   -229.20216    229018.04   -21243.406    1538.0644    -22781.47   -424.65911    393.19579    78.583223    15.909936    29.847563 
   70800    235.37482   -178.49361    229018.04    -21293.04    1558.9721   -22852.013    -170.0682    393.71696    78.582551    15.910136    29.863941 
   71000    236.30334   -311.51136    229018.04   -21259.786    1565.1221   -22824.908   -740.99245    396.41056    78.579633    15.908153    29.848436 
   71200    246.37395   -261.11586    229018.04   -21146.979    1631.8233   -22778.803   -529.22395    397.74964    78.580972    15.909267    29.850734 
   71400    236.82392   -306.29931    229018.04    -21189.41    1568.5701   -22757.981   -686.07938    397.62939    78.580624    15.907496    29.842484 
   71600    236.25372   -191.34563    229018.04   -21228.209    1564.7934   -22793.003   -245.88401    398.18396    78.580635    15.906263    29.826006 
   71800    239.77743   -427.48122    229018.04   -21225.964    1588.1322   -22814.097   -1168.0424    399.29098    78.580501    15.906365    29.807175 
   72000    232.89146   -328.04192    229018.04    -21249.96    1542.5239   -22792.484   -776.72337    399.56588    78.579176    15.908803    29.788503 
   72200    233.56095   -528.37871    229018.04   -21252.813    1546.9582   -22799.771    -1578.607    401.41614    78.577998    15.907005    29.771527 
   72400    234.55565   -233.27117    229018.04   -21206.974    1553.5465    -22760.52   -412.58276    402.30918    78.578858    15.906944    29.770945 
   72600    237.19801   -335.34997    229018.04   -21261.606    1571.0478   -22832.654   -822.20597    403.19825    78.578525    15.906606    29.772951 
   72800    232.32684   -353.37224    229018.04       -21319    1538.7843   -22857.784   -920.16487    402.76482    78.576561    15.905323    29.795893 
   73000    232.30009   -464.26608    229018.04   -21335.355    1538.6071   -22873.962    -1293.132     405.0414     78.57527    15.904424    29.779894 
   73200     241.7785   -207.89721    229018.04   -21261.796     1601.386   -22863.182   -339.63704    404.91316    78.575274    15.903391    29.769062 
   73400    236.47477   -197.03689    229018.04   -21258.895    1566.2575   -22825.153   -271.82012    406.54028    78.574698    15.902313    29.753406 
   73600    235.15519   -340.90008    229018.04    -21284.37    1557.5175   -22841.887   -871.97597    408.62545    78.576628    15.900323    29.777111 
   73800    239.68416   -294.43911    229018.04   -21198.116    1587.5145   -22785.631   -662.97592    409.61976    78.577601    15.899756    29.793196 
   74000     237.2891   -277.60573    229018.04   -21139.768    1571.6511   -22711.419   -606.61174    409.71763    78.576223    15.898898    29.807883 
   74200    235.79509   -222.59403    229018.04   -21216.085    1561.7557   -22777.841   -372.58873    410.98481    78.578113     15.89865    29.806106 
   74400    232.69879   -497.76417    229018.04   -21261.062    1541.2479    -22802.31   -1441.6993    411.45704    78.577913    15.899189    29.800299 
   74600    228.63193   -296.38038    229018.04   -21283.864    1514.3116   -22798.175    -659.5934    411.83707     78.57672    15.899476    29.783136 
   74800    230.47787   -89.316924    229018.04   -21216.897    1526.5379   -22743.435    140.67144    413.77092    78.577707    15.896627    29.768217 
   75000    233.01916   -327.22297    229018.04   -21194.637    1543.3698   -22738.006   -760.08469    414.90518    78.578976    15.895795    29.757751 
   75200    234.67333   -311.68721    229018.04   -21209.272    1554.3259   -22763.598   -712.16052    417.14767    78.582506    15.895968    29.759086 
   75400    235.55686   -247.41192    229018.04   -21202.645    1560.1779   -22762.823    -470.4896    418.07473    78.584871    15.894261    29.749317 
   75600    241.74862   -431.61585    229018.04   -21230.901    1601.1881   -22832.089   -1171.3683    419.63532    78.584999    15.893872    29.752717 
   75800    232.93447   -473.53705    229018.04   -21258.677    1542.8089   -22801.486   -1382.3178    419.92403    78.584196    15.895047    29.756029 
   76000    234.99087   -305.79262    229018.04   -21270.482    1556.4291   -22826.911   -695.15522    421.51947    78.585827    15.895592    29.766613 
   76200    233.77625   -152.74105    229018.04    -21300.31    1548.3842   -22848.694     -140.994    422.37981     78.58586    15.896285    29.759688 
   76400    223.96137   -357.63991    229018.04   -21333.642    1483.3768   -22817.019   -896.00354    424.59301    78.586447    15.896684    29.764291 
   76600    232.89452   -277.60951    229018.04   -21254.722    1542.5443   -22797.266   -590.30462    424.48181    78.586505     15.89336    29.778653 
   76800    236.34494   -216.38101    229018.04   -21123.453    1565.3976   -22688.851   -359.39966     425.3374    78.586631    15.893104     29.78265 
   77000     236.0287   -287.40554    229018.04   -21259.356    1563.3031    -22822.66   -618.09574    425.87345    78.588291    15.892486    29.789238 
   77200    231.65928   -245.31365    229018.04   -21256.429    1534.3628   -22790.792   -458.47656    425.69686    78.588928       15.894    29.797648 
   77400    230.23162   -344.85118    229018.04   -21241.775    1524.9069   -22766.681   -870.69712    428.22254    78.589465       15.895    29.788848 
   77600    230.55781    -96.18527    229018.04   -21238.623    1527.0674   -22765.691    154.08795     427.3717    78.588852    15.891086    29.802102 
   77800    234.45517   -197.83542    229018.04   -21275.674     1552.881   -22828.555   -295.08163    428.23518    78.590384    15.891064    29.814167 
   78000    232.27759   -164.82552    229018.04   -21331.101    1538.4581   -22869.559   -201.00007    429.07664    78.589517    15.890532    29.844935 
   78200    234.53534   -428.42079    229018.04   -21226.002     1553.412   -22779.414   -1183.9874    429.20744    78.589843    15.890265    29.826447 
   78400    234.47133   -288.09219    229018.04   -21245.203     1552.988   -22798.191   -608.08073    430.93632    78.592697    15.891408    29.829929 
   78600    231.57379   -248.46856    229018.04    -21299.36    1533.7966   -22833.156   -491.16213    431.40353    78.593889    15.892313    29.833825 
   78800    228.19693   -315.25508    229018.04   -21251.412    1511.4304   -22762.843   -755.57479    432.40422    78.593642    15.890671     29.82766 
   79000    237.49271   -213.43682    229018.04   -21226.896    1572.9997   -22799.895    -355.9442    430.09196    78.593034    15.890504    29.821628 
   79200    233.77093   -171.97894    229018.04   -21237.463     1548.349   -22785.812   -188.90741    428.90016     78.59445     15.88989    29.804295 
   79400    229.06339   -307.76387    229018.04    -21268.53    1517.1693   -22785.699   -736.43979    430.38911    78.594142    15.888997    29.815864 
   79600    234.64773   -349.91869    229018.04    -21241.53    1554.1564   -22795.686   -900.79705    431.03981    78.592886    15.888768    29.804627 
   79800    234.26332   -453.56855    229018.04   -21205.045    1551.6103   -22756.656   -1292.2425    434.13433    78.593732    15.891042    29.771728 
   80000    231.08529   -130.53823    229018.04   -21254.235    1530.5611   -22784.796   -21.898325    435.43343    78.594532    15.892121    29.749603 
   80200    237.42802   -278.74717    229018.04   -21235.037    1572.5713   -22807.609   -610.22613     438.3877    78.594285    15.892023    29.749192 
   80400    229.79031   -139.07369    229018.04   -21314.349    1521.9839   -22836.333    -106.8751    438.18866    78.595145    15.890052    29.743494 
   80600      237.965   -275.57041    229018.04   -21154.621    1576.1278   -22730.749   -582.22176     438.7147    78.593539    15.889356    29.738118 
   80800    232.20439   -277.93585    229018.04   -21243.332    1537.9732   -22781.305   -617.25577    442.23983    78.593736    15.890677    29.748054 
   81000    239.60403     -346.406    229018.04   -21183.088    1586.9837   -22770.071   -880.80572    442.33683    78.593433    15.888883     29.74457 
   81200    241.03327   -439.87821    229018.04    -21207.04    1596.4501    -22803.49   -1218.5255    443.11977    78.594018    15.887928    29.750837 
   81400    235.26854   -292.58918    229018.04   -21296.128    1558.2682   -22854.396   -658.50854     446.8512    78.596104    15.888073    29.766022 
   81600    233.11146   -359.90201    229018.04    -21176.55    1543.9811   -22720.531   -900.31897    446.76592    78.597191    15.886377    29.760775 
   81800    233.19447   -60.686929    229018.04   -21161.125    1544.5309   -22705.656    207.19566    444.82907    78.596022    15.888066    29.753099 
   82000    239.97699   -274.55154    229018.04   -21157.632     1589.454   -22747.086   -593.38748    446.17537    78.600252    15.887195    29.763142 
   82200    233.01184   -340.25775    229018.04   -21262.034    1543.3213   -22805.355   -824.34625    447.91232    78.598849    15.887651    29.764329 
   82400    229.56077   -275.29232    229018.04   -21247.484    1520.4636   -22767.947   -569.96595    448.92546    78.596892    15.888458    29.783886 
   82600    242.64338   -328.29747    229018.04   -21205.157    1607.1145   -22812.272   -781.17351    449.89703    78.596911    15.887169    29.790684 
   82800    234.42102    -309.0124    229018.04   -21183.808    1552.6548   -22736.462   -717.03523    452.25757    78.596616    15.884342    29.776926 
   83000    236.52011   -317.22747    229018.04   -21238.256    1566.5578   -22804.814    -769.9472     452.3948     78.59787    15.883587    29.775232 
   83200    234.59737   -198.02247    229018.04   -21272.632    1553.8228   -22826.455   -285.34887    453.12904    78.598814    15.881598    29.769152 
   83400    233.25172   -250.63086    229018.04   -21284.538    1544.9101   -22829.448   -478.97911    453.89492    78.596974    15.880166    29.766103 
   83600    233.81489   -311.68773    229018.04   -21285.158    1548.6402   -22833.798   -713.21382    454.64715    78.597903     15.87922    29.782287 
   83800    235.69101   -397.71997    229018.04   -21338.163    1561.0664   -22899.229   -1052.6384    457.75129    78.598321    15.879819    29.759225 
   84000    229.05368   -221.63412    229018.04   -21323.709     1517.105   -22840.814   -413.41475    458.59833    78.598912    15.883135    29.743448 
   84200    234.63037   -311.16515    229018.04   -21322.675    1554.0414   -22876.716    -710.0649    459.61542    78.597784    15.883731    29.749067 
   84400    235.89446   -415.27393    229018.04   -21239.583    1562.4139   -22801.997   -1126.0082     460.0147    78.595381    15.884124    29.741762 
   84600    234.18334   -147.54092    229018.04   -21257.495    1551.0806   -22808.576   -102.73682    460.53171    78.593631    15.884709    29.732674 
   84800    227.95207   -256.41626    229018.04   -21316.198    1509.8086   -22826.006   -528.27417    461.22808     78.59503    15.886275    29.729054 
   85000    233.19306   -350.84214    229018.04    -21232.63    1544.5216   -22777.151   -930.26388    463.96268    78.594718    15.885119    29.739113 
   85200    244.69504   -286.40557    229018.04   -21187.692    1620.7033   -22808.395   -662.72213    464.91622    78.597186    15.886378    29.734302 
   85400     234.8735   -354.24987    229018.04    -21251.83    1555.6518   -22807.482   -898.30621    466.19135    78.598857    15.887213    29.718299 
   85600    231.35932   -304.21828    229018.04   -21243.555     1532.376   -22775.931   -709.77953    465.23209    78.600096    15.887489    29.731621 
   85800    231.42946   -242.42358    229018.04   -21238.696    1532.8406   -22771.536    -410.0136    465.11864    78.600372    15.890992    29.740506 
   86000    238.80422   -419.59478    229018.04   -21199.342    1581.6863   -22781.028   -1115.0115    465.38664    78.601423    15.888531    29.735162 
   86200    231.17943   -370.23263    229018.04   -21262.018    1531.1846   -22793.202    -926.8917    465.80521    78.602044    15.889392    29.717079 
   86400    237.88861   -453.59732    229018.04   -21255.896    1575.6219   -22831.517   -1264.7246    468.17305    78.602537    15.890874     29.68713 
   86600    234.96278   -325.73275    229018.04   -21220.755    1556.2431   -22776.998   -789.59531    467.53013    78.601976    15.892554     29.68815 
   86800    241.98976   -296.34758    229018.04   -21267.718    1602.7853   -22870.503   -648.98127    469.18273    78.602944    15.892402    29.685118 
   87000    227.14384   -106.40612    229018.04   -21273.386    1504.4554   -22777.842    59.742338     468.6408    78.603622    15.890705    29.685839 
   87200    236.51294    -431.0096    229018.04   -21203.256    1566.5103   -22769.766   -1180.2881    470.38505    78.601757     15.88907    29.697446 
   87400    236.61082   -216.29659    229018.04   -21217.535    1567.1586   -22784.694   -364.21917    469.72263    78.602656    15.887434    29.699742 
   87600    237.49278   -336.67889    229018.04   -21186.323    1573.0001   -22759.323   -845.19874     470.2591     78.60246    15.887036    29.705028 
   87800    226.46306    -148.6565    229018.04   -21320.549    1499.9464   -22820.495    -63.71985    472.58083    78.601477     15.88605    29.708105 
   88000    241.49371   -460.41766    229018.04   -21181.829    1599.4997   -22781.329   -1291.3625    474.40866    78.600111    15.884574    29.703289 
   88200    237.86596   -200.96189    229018.04   -21170.627    1575.4718   -22746.099    -278.8597    473.66653    78.598051    15.884816    29.704289 
   88400    238.41575   -344.47625    229018.04   -21182.842    1579.1133   -22761.955   -836.18053    475.40228    78.597982    15.885749     29.72094 
   88600    227.66117   -274.40098    229018.04   -21259.368    1507.8819   -22767.249   -564.58368    477.35507    78.598443    15.888446    29.716105 
   88800    233.86252   -173.40697    229018.04   -21247.722    1548.9557   -22796.678   -159.49078    477.19418    78.597301    15.887645    29.705319 
   89000    231.02374   -249.61924    229018.04   -21311.919    1530.1534   -22842.072    -444.7918    479.43437    78.598026    15.886368    29.701005 
   89200    237.85031   -275.97236    229018.04   -21283.838    1575.3682   -22859.207    -550.7811    483.09336    78.597874    15.883571    29.711746 
   89400    236.34513   -363.49987    229018.04   -21234.492    1565.3988   -22799.891   -906.41719    485.13268    78.598817    15.878447    29.696564 
   89600    229.16515   -262.58505    229018.04    -21334.19    1517.8433   -22852.034   -494.07803    485.42022    78.601016    15.879294    29.703945 
   89800    237.61816   -123.91964    229018.04   -21289.287    1573.8306   -22863.117   -1.2901674    485.30758    78.601009    15.881052    29.701522 
   90000    234.90471   -351.32657    229018.04   -21231.901    1555.8585   -22787.759   -874.87604    487.02856    78.602126    15.881924    29.708814 
   90200    231.90946   -318.55282    229018.04   -21264.234    1536.0198   -22800.254    -777.6358    487.56139    78.601501    15.880615    29.696478 
   90400    234.30053   -379.32924    229018.04   -21336.519    1551.8567   -22888.376    -980.9799    489.28391    78.604168    15.877228     29.70391 
   90600    230.67086   -194.94698    229018.04   -21302.045    1527.8161   -22829.861   -240.97562    489.31144    78.603441    15.874347    29.704779 
   90800    240.81275   -372.57977    229018.04   -21186.724    1594.9895   -22781.714   -950.18145    490.32161    78.601666    15.873402    29.712647 
   91000    229.96091   -117.35643    229018.04   -21292.806    1523.1138    -22815.92    50.205103    490.82925    78.601045    15.872072    29.723372 
   91200    229.74558   -328.37297    229018.04   -21313.487    1521.6877   -22835.174   -785.67641    493.64166    78.600183    15.874237    29.705017 
   91400    233.08198   -227.36144    229018.04     -21285.1    1543.7859   -22828.886   -410.50504    491.51462    78.602361    15.877528    29.715143 
   91600    237.68068   -205.60154    229018.04    -21256.26    1574.2447   -22830.504   -309.82604    491.49475    78.604008    15.879845    29.693694 
   91800    243.24845   -297.83517    229018.04   -21238.664    1611.1221   -22849.786   -686.92909    494.51273    78.603515     15.87959    29.714076 
   92000    231.71399   -389.81166    229018.04   -21267.526    1534.7252   -22802.251   -1033.1931    496.70097    78.603646     15.87914    29.714547 
   92200    229.02053   -160.01262    229018.04   -21268.379    1516.8854   -22785.264   -119.60008    496.81486    78.603009     15.87732    29.725047 
   92400    233.05926   -141.54285    229018.04   -21243.962    1543.6354   -22787.598   -94.376826    497.38497      78.6035    15.875719      29.7377 
   92600    233.21224   -432.32826    229018.04    -21192.74    1544.6486   -22737.389   -1179.1983    500.05629    78.603134    15.875434    29.739389 
   92800    224.46863   -406.80832    229018.04   -21274.698    1486.7365   -22761.434   -1088.8492    500.64618    78.601296    15.876543     29.74969 
   93000    228.01594   -387.25695    229018.04   -21283.978    1510.2316   -22794.209   -1005.1479    502.22993    78.601543     15.87611    29.773858 
   93200    236.38651   -256.77947    229018.04    -21246.52    1565.6729   -22812.192   -541.14316    502.13404    78.603296    15.874902    29.779107 
   93400    231.93843   -231.30662    229018.04   -21337.261    1536.2117   -22873.472   -367.34906    503.39889    78.604562    15.877857    29.774814 
   93600    233.27092   -421.66602    229018.04   -21312.713    1545.0373    -22857.75   -1140.0494    505.47654    78.605737    15.876467     29.77838 
   93800    235.87987   -404.44665    229018.04   -21235.659    1562.3173   -22797.976    -1089.818     506.6627    78.606057    15.878101     29.78302 
   94000    240.59549   -367.76747    229018.04   -21282.588    1593.5505   -22876.138   -938.90593    507.94474    78.607284    15.878591    29.776828 
   94200     237.7182   -258.44625    229018.04   -21305.344    1574.4932   -22879.837   -509.38046    507.39485    78.609613    15.877472    29.786964 
   94400    236.50479   -451.17498    229018.04   -21229.856    1566.4564   -22796.313   -1250.8302    510.50361    78.607695    15.880633     29.79254 
   94600    236.93871   -209.74212    229018.04   -21318.748    1569.3304   -22888.078   -297.10895    512.07924    78.607177     15.87783    29.803038 
   94800    239.78876   -270.30985    229018.04    -21204.66    1588.2073   -22792.867   -548.57367    515.38015    78.608688    15.877115    29.807581 
   95000     246.2465   -309.45874    229018.04   -21269.352    1630.9792   -22900.331   -711.70118    518.91019    78.606463    15.874558    29.815026 
   95200    230.68348   -273.04325    229018.04   -21359.244    1527.8997   -22887.144   -579.58335    517.88277    78.608563    15.875788    29.804808 
   95400    234.23785   -295.12179    229018.04   -21326.463    1551.4416   -22877.904   -657.23433    520.35249     78.60917    15.880178    29.801273 
   95600    232.88872   -399.55578    229018.04   -21342.458    1542.5058   -22884.964    -1041.247    521.84486    78.610508    15.882594    29.790983 
   95800    238.58139    -207.1606    229018.04   -21288.642    1580.2104   -22868.853   -326.22881     520.7644    78.612132    15.880796     29.79465 
   96000    238.54694   -145.01579    229018.04   -21342.364    1579.9822   -22922.346   -73.262176    521.31688    78.614346    15.879267    29.796584 
   96200    229.66808   -252.61407    229018.04   -21384.924    1521.1743   -22906.098   -453.88027    521.32534    78.615586    15.877232    29.791223 
   96400    233.09542   -308.13215    229018.04   -21301.761    1543.8748   -22845.636   -723.90692    522.60921    78.615647    15.877384    29.785259 
   96600    234.11742   -470.86921    229018.04   -21348.848    1550.6439   -22899.492   -1342.4825    523.33777    78.614918    15.877255    29.767554 
   96800    228.06849   -112.15407    229018.04   -21317.397    1510.5797   -22827.976    51.929908    522.95672    78.614839    15.877314     29.75262 
   97000    231.17929   -330.17505    229018.04   -21297.039    1531.1837   -22828.223   -806.83094    523.75267    78.614197    15.875917    29.720233 
   97200    237.71857    -243.3346    229018.04   -21247.177    1574.4956   -22821.673   -424.53607    524.57644    78.615184    15.874649    29.712455 
   97400    240.43004   -249.41037    229018.04   -21265.305    1592.4547   -22857.759   -524.23637    524.13792    78.616883    15.875431    29.709611 
   97600    233.42909   -204.71314    229018.04   -21288.793    1546.0849   -22834.878   -329.54273    524.29556    78.617984    15.876048    29.702284 
   97800    231.14733    -155.5075    229018.04   -21341.352     1530.972   -22872.324   -137.43086    524.54134    78.617248    15.876095    29.696966 
   98000    231.01624    -109.6411    229018.04   -21412.632    1530.1037   -22942.735     62.43194    526.93649     78.61731    15.879158    29.699567 
   98200    230.29829   -317.89899    229018.04   -21349.898    1525.3485   -22875.247   -777.08475    525.91427    78.617635    15.878756    29.692286 
   98400    232.15748   -287.09691    229018.04   -21278.963    1537.6626   -22816.625   -651.63806    524.40903    78.616709    15.882346     29.69772 
   98600     227.4836   -289.78886    229018.04   -21231.379    1506.7057   -22738.085    -624.3178    527.13077    78.616314    15.881322    29.688668 
   98800    243.67536   -113.22205    229018.04   -21134.852    1613.9496   -22748.802    64.827471    527.67276    78.616158     15.88207    29.696274 
   99000    245.74301   -464.37485    229018.04   -21136.078    1627.6444   -22763.723   -1358.0077    528.29287    78.615528    15.882752    29.676589 
   99200    232.86548   -368.02812    229018.04   -21167.233    1542.3519   -22709.585   -966.63931    529.15892     78.61482    15.881798    29.662174 
   99400    231.31078   -609.21642    229018.04   -21233.547    1532.0545   -22765.602   -1890.1739    531.25469    78.615113    15.881078    29.658792 
   99600    237.15958   -247.66793    229018.04   -21201.979    1570.7933   -22772.772   -474.82557    531.38604     78.61487    15.881283      29.6402 
   99800     235.8348   -403.05669    229018.04   -21197.581    1562.0188     -22759.6   -1039.7632    531.96841    78.613638    15.881982    29.654231 
  100000     233.5013   -221.80453    229018.04   -21213.421    1546.5632   -22759.984    -368.1622    531.70632    78.617628    15.884521    29.648345 
  100200     239.0616   -333.02917    229018.04   -21123.517     1583.391   -22706.908   -816.90869    535.60262    78.619536      15.8864    29.657412 
  100400     239.5416   -296.80512    229018.04   -21151.969    1586.5703   -22738.539   -656.25882    536.03995    78.620888    15.888607     29.67023 
  100600     236.1646   -205.82531    229018.04   -21221.803    1564.2031   -22786.006   -266.04411    536.69003    78.621196     15.89026    29.691218 
  100800    242.97512   -216.13274    229018.04    -21183.25    1609.3117   -22792.562    -354.0586    537.73295    78.620992    15.892232    29.690583 
[...]
 3975800    221.92979   -420.59178    229018.04   -23295.703    1469.9208   -24765.624     -1164.57    5944.5856    81.450479    16.083369    29.564701 
 3976000    222.46708   -396.59727    229018.04     -23327.7    1473.4796    -24801.18   -1038.1833     5943.699     81.45126    16.083228    29.575884 
 3976200    221.95171   -275.55487    229018.04   -23285.712    1470.0661   -24755.778   -626.74784    5943.7363     81.45084    16.081679    29.570957 
 3976400    222.64539    -300.3191    229018.04   -23276.599    1474.6605    -24751.26   -666.54064    5942.7148    81.453092    16.080974    29.551137 
 3976600     225.3369   -451.24493    229018.04   -23212.265    1492.4874   -24704.752   -1276.5003    5945.0715    81.451931    16.081983    29.563771 
 3976800    226.92323   -274.96466    229018.04   -23222.229    1502.9943   -24725.223   -567.40733    5941.2899    81.454414    16.081476    29.554689 
 3977000    227.58628    -322.8701    229018.04   -23264.146    1507.3858   -24771.532   -761.75108    5944.2395    81.454714     16.08326    29.549938 
 3977200    225.51912   -392.15271    229018.04    -23220.98    1493.6943   -24714.674   -1055.1658    5945.6124    81.454478    16.081589    29.547097 
 3977400    225.28882   -307.10697    229018.04   -23256.721     1492.169    -24748.89   -724.21709    5942.4507    81.454339    16.080254    29.537998 
 3977600    220.19062   -340.47754    229018.04   -23312.611    1458.4018   -24771.013   -849.72206    5941.6105    81.456085    16.080673    29.550277 
 3977800    221.32051   -412.19572    229018.04   -23277.421    1465.8854   -24743.306    -1150.027    5946.0345    81.454737    16.078683    29.562347 
 3978000    222.53299   -371.25956    229018.04   -23285.595    1473.9161   -24759.511   -972.55173     5942.509    81.454016    16.078487    29.561879 
 3978200    228.68259   -448.06424    229018.04   -23221.428    1514.6471   -24736.075    -1244.939     5944.459    81.452044    16.078106    29.580597 
 3978400    223.65389   -412.50955    229018.04    -23269.97    1481.3402    -24751.31   -1096.3486    5944.5283    81.450964    16.075947    29.569646 
 3978600    221.31348   -338.89711    229018.04   -23320.181    1465.8389    -24786.02   -833.57205    5944.2274    81.451087    16.074354    29.571733 
 3978800    222.16078   -339.01363    229018.04   -23278.537    1471.4508   -24749.988   -834.08215    5943.2736    81.449924    16.073865    29.570276 
 3979000    233.43192   -353.89669    229018.04   -23156.943    1546.1036   -24703.047   -866.80391    5944.3954    81.448928    16.072758    29.566878 
 3979200    222.00446   -334.68145    229018.04   -23226.887    1470.4155   -24697.303   -813.92814    5944.1581     81.45084    16.071593    29.555448 
 3979400    218.44358   -333.11629    229018.04   -23296.706    1446.8305   -24743.536   -776.99526    5945.2347    81.450778    16.072506    29.565119 
 3979600    224.11303   -399.18672    229018.04   -23273.366    1484.3812   -24757.747    -1058.536    5944.7197     81.45291    16.071954     29.57153 
 3979800    231.46621   -381.71429    229018.04   -23214.316     1533.084     -24747.4   -987.85487    5944.9371    81.452528     16.07049    29.562502 
 3980000    219.82454   -326.19017    229018.04   -23320.829     1455.977   -24776.806   -756.39976    5944.5361    81.452358    16.068425    29.564225 
 3980200    222.61159   -398.53274    229018.04   -23325.567    1474.4367   -24800.003   -1056.3064    5944.7728    81.452423    16.069359    29.563705 
 3980400    221.49409   -359.12651    229018.04   -23291.045    1467.0351    -24758.08   -882.46885     5944.342    81.451499    16.071111    29.563023 
 3980600    223.27256   -319.82781    229018.04   -23304.434    1478.8145   -24783.249   -725.13733    5945.1402     81.44997    16.073431    29.573531 
 3980800    225.69339   -475.45984    229018.04   -23315.243    1494.8486   -24810.092   -1350.5706    5946.9622    81.450478    16.074322    29.555356 
 3981000    227.12371   -362.09268    229018.04   -23242.806    1504.3221   -24747.129   -924.30758    5943.6849    81.450392    16.075036    29.567984 
 3981200     228.9618   -336.20219    229018.04   -23291.826    1516.4964   -24808.322   -803.76568     5945.793    81.451932    16.074639    29.551679 
 3981400    227.36925    -433.9733    229018.04   -23269.961    1505.9484   -24775.909   -1195.0589    5944.8329    81.451529     16.07676    29.562447 
 3981600    227.22369   -332.67352    229018.04   -23223.921    1504.9843   -24728.906   -826.26172    5942.8218    81.452097    16.075909    29.571935 
 3981800    223.72968   -419.97536    229018.04   -23286.291    1481.8422   -24768.133   -1114.5389    5946.1035    81.452052    16.077788    29.563325 
 3982000    222.87375    -411.8368    229018.04   -23275.236    1476.1731   -24751.409   -1106.3681    5947.1735    81.450733    16.079527    29.572116 
 3982200    224.95686   -317.91306    229018.04   -23241.345    1489.9703   -24731.315   -765.53455    5943.8862    81.450739     16.08282    29.568657 
 3982400    229.10051   -434.24789    229018.04   -23246.249    1517.4151   -24763.664   -1190.6061    5946.5054    81.452067    16.083638    29.561836 
 3982600    232.68853   -374.18032    229018.04   -23249.039    1541.1799   -24790.219   -956.77071    5947.1265    81.452366     16.08641    29.561108 
 3982800    226.45498   -354.71464    229018.04   -23249.859    1499.8929   -24749.752   -905.62652    5946.4157    81.453067    16.088637    29.560139 
 3983000    224.34895   -376.52423    229018.04   -23321.502    1485.9438   -24807.446   -999.80713     5945.684    81.450508    16.091674    29.560501 
 3983200    222.71471   -418.31254    229018.04   -23280.457    1475.1197   -24755.577   -1149.5413    5948.3062    81.453168    16.089692    29.558866 
 3983400    222.81097   -319.69809    229018.04   -23280.107    1475.7573   -24755.865   -755.22076    5946.0578    81.452986    16.091283    29.578242 
 3983600     231.3126   -268.47121    229018.04   -23222.641    1532.0666   -24754.707   -577.54564    5945.0527    81.454029    16.093049    29.564867 
 3983800    216.59579   -412.57488    229018.04   -23329.867    1434.5919   -24764.458   -1102.2681    5946.8155    81.454453    16.093943    29.556627 
 3984000    229.23749   -350.27513    229018.04   -23262.066    1518.3224   -24780.388   -876.71115    5945.1634    81.454765    16.096052    29.544092 
 3984200    224.39924   -338.07977    229018.04   -23307.903    1486.2769    -24794.18   -867.50344    5944.9985    81.455926    16.095374    29.537835 
 3984400    225.91561   -420.33711    229018.04   -23319.076    1496.3204   -24815.396   -1124.2485    5947.9712    81.458749     16.09401    29.550636 
 3984600    223.02133   -333.08805    229018.04   -23270.782    1477.1505   -24747.933   -828.84914    5946.0815     81.45911    16.093901    29.549835 
 3984800    224.45635   -410.64463    229018.04   -23291.433    1486.6552   -24778.089   -1105.2934    5947.2167    81.461163    16.093981    29.556758 
 3985000    223.92409   -386.09669    229018.04   -23257.508    1483.1298   -24740.638   -1007.8475    5945.6705     81.46301    16.092585    29.548585 
 3985200    231.26469    -308.0753    229018.04   -23265.896    1531.7493   -24797.646    -737.7874    5943.6614    81.463692     16.09411    29.546386 
 3985400    224.84094   -395.71668    229018.04   -23278.948    1489.2024   -24768.151   -1043.9893    5947.6531    81.464249    16.092836    29.554483 
 3985600    231.14589   -350.05603    229018.04   -23237.035    1530.9624   -24767.998   -854.81061    5945.7646    81.463981    16.091499    29.554841 
 3985800    226.13752   -315.46812    229018.04   -23314.503    1497.7902   -24812.294   -729.18085    5944.4573    81.465123    16.090738     29.57076 
 3986000     221.8691   -495.63652    229018.04   -23244.618    1469.5189   -24714.137   -1483.8296    5946.8563    81.465552    16.092444    29.555574 
 3986200    225.14982   -305.05102    229018.04   -23270.663    1491.2483   -24761.911   -687.39772    5945.0282    81.466347    16.092173    29.572585 
 3986400    224.76593   -298.48989    229018.04   -23336.113    1488.7057   -24824.819   -654.76995    5943.6987    81.466239    16.092235    29.578767 
 3986600    224.50397   -481.21772    229018.04    -23325.48    1486.9706    -24812.45   -1392.1295    5945.0568    81.465797    16.093285    29.576906 
 3986800    226.19723   -330.58837    229018.04    -23229.13    1498.1857   -24727.316   -798.85684    5943.1211    81.464195    16.093696    29.579809 
 3987000    224.85073   -308.97835    229018.04   -23230.165    1489.2673   -24719.432   -729.02107    5944.5815    81.463349    16.093883    29.587851 
 3987200    224.12178   -440.19108    229018.04   -23248.009    1484.4392   -24732.449   -1199.6748    5947.7195    81.462214    16.094903    29.589796 
 3987400    222.58808   -329.59938    229018.04   -23258.682     1474.281   -24732.963   -840.53556    5942.9198    81.462499    16.093296    29.577822 
 3987600    222.20181   -315.59203    229018.04   -23320.621    1471.7225   -24792.344   -744.09026    5943.0081    81.461912    16.093039    29.574054 
 3987800    220.64613   -421.93958    229018.04   -23290.874    1461.4187   -24752.293   -1162.8806    5946.1369    81.460601    16.093169    29.576849 
 3988000    231.30691    -351.0026    229018.04   -23268.577    1532.0289   -24800.606   -870.98417    5943.1775    81.459944    16.091699    29.564158 
 3988200    226.95315    -292.1375    229018.04   -23255.172    1503.1924   -24758.364   -653.77975    5943.7202    81.459244    16.089409    29.557765 
 3988400    222.31746   -381.16976    229018.04   -23226.027    1472.4885   -24698.515   -1026.4945    5945.7835     81.45899    16.088784    29.557779 
 3988600    221.48182   -405.60324    229018.04   -23253.797    1466.9538   -24720.751   -1125.7613     5943.966     81.45747    16.090128    29.559691 
 3988800    225.72383   -329.65311    229018.04   -23337.129    1495.0502   -24832.179   -840.86614     5941.907    81.457956    16.086674    29.574369 
 3989000    223.53738   -300.51772    229018.04   -23306.374    1480.5685   -24786.942   -677.58933    5945.3898    81.456406    16.088568    29.566788 
 3989200    226.08732   -340.01362    229018.04    -23243.19    1497.4577   -24740.647   -821.05149    5941.1607    81.454899     16.08944    29.567809 
 3989400    227.29579   -377.63805    229018.04   -23242.431    1505.4618   -24747.893   -977.67519    5944.3064    81.454612    16.087183    29.578258 
 3989600    220.94873    -358.0002    229018.04   -23286.656    1463.4229   -24750.079   -902.23473    5945.2084    81.454695    16.087252    29.568034 
 3989800    223.44933   -424.43416    229018.04   -23251.509    1479.9854   -24731.494   -1156.5137    5942.3243    81.452308    16.089147    29.562025 
 3990000    224.84654   -468.17628    229018.04    -23234.39    1489.2395    -24723.63   -1365.8478    5944.9998    81.452543    16.085672    29.569861 
 3990200    227.14041   -339.14053    229018.04   -23276.337    1504.4327    -24780.77   -847.88006    5945.2621    81.452377     16.08702    29.566002 
 3990400    225.62495   -371.40204    229018.04   -23255.777    1494.3952   -24750.172   -977.54016    5944.9904    81.454463    16.086774    29.560457 
 3990600    221.97051   -414.33996    229018.04   -23284.592    1470.1906   -24754.782     -1114.95    5944.7169    81.454069    16.085832    29.552399 
 3990800    229.97159   -318.07152    229018.04   -23199.587    1523.1846   -24722.772   -764.95732    5944.2051       81.453    16.086053    29.560348 
 3991000    231.73746   -339.98817    229018.04   -23212.324    1534.8806   -24747.205   -826.89709    5945.5992    81.452501    16.087883     29.56441 
 3991200    225.39448   -372.10723    229018.04   -23267.653    1492.8688   -24760.522   -958.90482    5944.1255    81.453477     16.08623    29.556066 
 3991400    222.23336   -397.58703    229018.04   -23292.069    1471.9315       -24764   -1055.9828    5945.2171    81.453433    16.086945    29.554171 
 3991600    221.40565   -343.76226    229018.04   -23260.125    1466.4493   -24726.575   -846.55789    5945.4032    81.451811    16.089385    29.554717 
 3991800    230.91929   -308.59885    229018.04    -23200.71    1529.4616   -24730.172   -714.38093    5943.1578    81.451761    16.089074    29.554968 
 3992000    222.20498   -419.38738    229018.04   -23249.519    1471.7435   -24721.262   -1134.5159    5945.8588    81.453911    16.086331    29.548494 
 3992200    219.27328   -300.41284    229018.04   -23284.879    1452.3258   -24737.204   -683.96831    5944.6518    81.454695    16.088067    29.563267 
 3992400    220.18465   -381.96831    229018.04   -23287.239    1458.3622   -24745.601   -990.86954    5945.3191    81.456513    16.086796    29.541693 
 3992600    227.38393   -420.41534    229018.04   -23237.183    1506.0456   -24743.228   -1188.6503    5944.7655    81.458558    16.085061    29.554864 
 3992800    225.79334   -311.82766    229018.04   -23206.449    1495.5106   -24701.959   -730.03279     5943.208    81.460092    16.083512    29.562723 
 3993000    236.13771   -339.85051    229018.04   -23198.219    1564.0251   -24762.244   -867.69359    5943.5379    81.461176    16.085418     29.56594 
 3993200    230.78225   -441.56108    229018.04   -23199.762    1528.5539   -24728.316   -1269.9206    5946.2086    81.462422    16.083017    29.578989 
 3993400    229.88507   -304.42982    229018.04   -23227.379    1522.6116   -24749.991   -677.97102    5946.2375    81.462929    16.083667    29.574747 
 3993600    221.78987   -332.74165    229018.04   -23264.005    1468.9941       -24733   -848.71818     5942.211    81.462603    16.085514    29.575416 
 3993800    221.31728   -463.68952    229018.04   -23316.449     1465.864   -24782.313    -1323.605     5946.717    81.463735    16.082456    29.580251 
 3994000    221.30496   -315.13399    229018.04   -23332.952    1465.7824   -24798.734   -737.70912    5943.6429    81.464146    16.083672    29.575029 
 3994200    225.47066   -424.02374    229018.04   -23254.731    1493.3733   -24748.105   -1192.7778    5946.9413    81.463556    16.083993    29.564571 
 3994400    228.15958   -353.07881    229018.04   -23273.846     1511.183   -24785.029   -860.82912    5944.5633    81.463312    16.082167    29.554887 
 3994600    227.61017     -319.772    229018.04   -23253.325    1507.5441   -24760.869   -735.90915    5942.7419     81.46266    16.084989    29.574479 
 3994800    224.67349     -361.322    229018.04   -23259.484    1488.0934   -24747.577   -888.75513    5945.3615    81.462803     16.08735    29.581157 
 3995000    224.06946   -400.02962    229018.04   -23308.571    1484.0927   -24792.663   -1099.8454    5943.1722    81.463891    16.085729    29.573456 
 3995200     226.0894   -341.45307    229018.04   -23320.754    1497.4715   -24818.226   -821.02381    5945.0335     81.46361    16.085175    29.576848 
 3995400    223.33609    -440.3232    229018.04   -23265.181    1479.2353   -24744.417   -1229.1115    5946.9573    81.465152    16.087003     29.55885 
 3995600    226.20809    -284.1936    229018.04   -23265.676    1498.2576   -24763.933   -601.62007     5941.894    81.467404    16.085054     29.57149 
 3995800    222.03349   -318.97364    229018.04   -23319.676    1470.6077   -24790.283   -745.72477    5944.3234    81.465754    16.085883     29.57291 
 3996000    223.02511    -457.1069    229018.04   -23277.078    1477.1756   -24754.253   -1312.5811    5946.6012    81.465585    16.087582    29.588074 
 3996200    224.67822   -391.99069    229018.04   -23253.369    1488.1247   -24741.493   -1027.4025    5943.4994    81.465308     16.08971    29.587165 
 3996400    217.21742   -389.35689    229018.04   -23303.421    1438.7092   -24742.131    -1025.436    5943.9205    81.464596    16.089519    29.583056 
 3996600    218.56991   -402.06222    229018.04   -23337.029    1447.6672   -24784.696   -1059.8575    5944.2583    81.465267     16.09236    29.598697 
 3996800    218.54869   -369.45073    229018.04   -23283.703    1447.5266    -24731.23    -919.2529    5944.4241    81.464397    16.092745    29.580407 
 3997000     226.7217   -433.89483    229018.04   -23243.093    1501.6594   -24744.753    -1197.371    5944.6035    81.465908    16.090785    29.584284 
 3997200    222.32231   -364.55339    229018.04   -23305.073    1472.5207   -24777.594    -929.5322    5945.0545    81.466186    16.092396    29.568565 
 3997400    222.60942   -304.71785    229018.04   -23281.125    1474.4223   -24755.547   -702.28583    5944.5403    81.465407    16.092292    29.568932 
 3997600    221.48375   -265.09085    229018.04   -23281.428    1466.9666   -24748.394   -550.03295    5944.9723    81.462698    16.092648    29.567734 
 3997800    226.71749   -310.13526    229018.04   -23253.332    1501.6315   -24754.964   -715.17966    5944.9742    81.463186    16.092934    29.582012 
 3998000     227.0385   -288.42334    229018.04   -23264.934    1503.7577   -24768.691   -664.49683    5942.6931    81.464458    16.093228     29.57318 
 3998200    224.52218   -346.90915    229018.04   -23217.193    1487.0912   -24704.284   -887.71368    5946.1122    81.466513    16.093829    29.572298 
 3998400    222.54613   -269.54197    229018.04   -23283.304    1474.0031   -24757.307   -536.80924    5943.1018    81.466739    16.093171    29.574254 
 3998600     222.6706   -300.68066    229018.04   -23274.918    1474.8275   -24749.745   -677.20164    5944.2461    81.467779    16.094549     29.59975 
 3998800    230.44604   -320.21056    229018.04    -23275.66     1526.327   -24801.987   -770.08455     5944.348     81.46854    16.093332    29.589954 
 3999000    224.19104   -267.33908    229018.04   -23282.642     1484.898    -24767.54   -513.80734    5943.6456    81.470051    16.092183    29.573414 
 3999200    225.47965   -301.71451    229018.04   -23263.864    1493.4329   -24757.297   -730.73528    5946.1208    81.471547    16.090988     29.56793 
 3999400    219.16338   -420.51196    229018.04   -23265.139    1451.5979   -24716.737   -1146.5389    5946.3755    81.472928    16.089754    29.556777 
 3999600    223.19413    -296.1311    229018.04   -23291.498     1478.295   -24769.793   -664.68843    5944.8416    81.473707    16.089461    29.561099 
 3999800    222.05129   -367.82305    229018.04    -23276.48    1470.7256   -24747.206   -954.89246    5942.7167    81.473073    16.089562       29.571 
 4000000    222.15448   -504.61521    229018.04    -23268.56    1471.4091   -24739.969   -1501.6803    5947.0932    81.472252    16.088493    29.568389 
Loop time of 12141.1 on 60 procs for 4000000 steps with 8943 atoms

Performance: 284.653 ns/day, 0.084 hours/ns, 329.460 timesteps/s
98.1% CPU use with 60 MPI tasks x no OpenMP threads

MPI task timing breakdown:
Section |  min time  |  avg time  |  max time  |%varavg| %total
---------------------------------------------------------------
Pair    | 0.27573    | 3099.4     | 10369      |7039.2 | 25.53
Neigh   | 2.1913     | 190.85     | 553.4      |1452.5 |  1.57
Comm    | 85.645     | 3700.1     | 9533.7     |6518.8 | 30.48
Output  | 115.69     | 115.77     | 117.31     |   1.9 |  0.95
Modify  | 155.21     | 5000       | 11897      |7367.4 | 41.18
Other   |            | 34.86      |            |       |  0.29

Nlocal:    149.05 ave 374 max 0 min
Histogram: 24 0 4 12 0 0 0 0 2 18
Nghost:    818.317 ave 1255 max 360 min
Histogram: 10 1 1 0 22 5 5 2 5 9
Neighs:    0 ave 0 max 0 min
Histogram: 60 0 0 0 0 0 0 0 0 0
FullNghs:  14967.8 ave 44996 max 0 min
Histogram: 26 14 0 0 0 0 0 2 9 9

Total # of neighbors = 898068
Ave neighs/atom = 100.421
Neighbor list builds = 423751
Dangerous builds = 0
write_data 		${DIR}/data.${NAME}_run
write_data 		run_10/data.${NAME}_run
write_data 		run_10/data.ibeam_cooling_10_run
Total wall time: 3:22:51
