
### Dimensions ###


### IMPORT ATOMS ###
read_data ../Box_Setup/data.Ibeam_240K
  orthogonal box = (0 0 0) to (157.504 36.4877 39.8503)
  10 by 2 by 3 MPI processor grid
  reading atoms ...
  8943 atoms
  reading velocities ...
  8943 velocities
group water type 2
2223 atoms in group water
group graphite type 1
6720 atoms in group graphite


# Define potential
#
pair_style          sw
pair_coeff * * MLC_e.sw C mW

# Add velocity/set timestep
#

fix		1 graphite setforce 0.0 0.0 0.0
velocity 	graphite set 0.0 0.0 0.0
velocity            water create ${START_TEMP} ${SEED} rot yes dist gaussian
velocity            water create 235 ${SEED} rot yes dist gaussian
velocity            water create 235 29317 rot yes dist gaussian
timestep            5.0

# Define output
#
compute 1 water msd
compute 2 water temp


thermo	            100
thermo_style custom step c_2 press vol etotal ke pe c_1[4] density

# Neighbor lists
#
neigh_modify        delay 0 every 1 check yes


# Set fixes
#
fix                 2 water momentum 10 linear 1 1 1 rescale
fix                 3 all nve
fix                 4 water temp/csvr ${START_TEMP} ${START_TEMP} 500.0 928347
fix                 4 water temp/csvr 235 ${START_TEMP} 500.0 928347
fix                 4 water temp/csvr 235 235 500.0 928347

# Run 0.05 ns equilibration
#
dump                1 all custom 100 ${DIR}/eq.${NAME}.dump id type x y z vx vy vz
dump                1 all custom 100 run_10/eq.${NAME}.dump id type x y z vx vy vz
dump                1 all custom 100 run_10/eq.ibeam_cooling_10.dump id type x y z vx vy vz
run                 10000
Neighbor list info ...
  update every 1 steps, delay 0 steps, check yes
  max neighbors/atom: 2000, page size: 100000
  master list distance cutoff = 6.67472
  ghost atom cutoff = 6.67472
  binsize = 3.33736, bins = 48 11 12
  1 neighbor lists, perpetual/occasional/extra = 1 0 0
  (1) pair sw, perpetual
      attributes: full, newton on
      pair build: full/bin/atomonly
      stencil: full/bin/3d
      bin: standard
Per MPI rank memory allocation (min/avg/max) = 3.374 | 4.219 | 4.781 Mbytes
Step c_2 Press Volume TotEng KinEng PotEng c_1[4] Density 
       0          235    -169.9624    229018.04   -21244.698    1556.4896   -22801.188            0   0.87555383 
     100    240.06391   -290.86004    229018.04   -21236.697    1590.0297   -22826.727   0.84638193   0.87555383 
     200     239.1792   -409.31762    229018.04   -21294.871    1584.1699   -22879.041    1.2246842   0.87555383 
     300    231.28797   -327.38555    229018.04   -21290.426    1531.9035   -22822.329    1.5387269   0.87555383 
     400    230.03002   -293.47306    229018.04    -21306.67    1523.5716   -22830.242    1.8244836   0.87555383 
     500    234.14084   -183.60979    229018.04   -21312.507    1550.7991   -22863.306     2.157143   0.87555383 
     600      231.956   -247.58477    229018.04   -21409.944    1536.3281   -22946.272    2.5270651   0.87555383 
     700    228.84649   -280.46801    229018.04    -21383.13    1515.7327   -22898.863    2.8202821   0.87555383 
     800     226.2372   -356.74793    229018.04    -21426.18    1498.4504    -22924.63    3.0378763   0.87555383 
     900    231.42515   -304.25962    229018.04    -21382.74    1532.8121   -22915.552    3.4236884   0.87555383 
    1000    232.03029   -201.15152    229018.04   -21312.389    1536.8201    -22849.21    3.7804741   0.87555383 
    1100    235.26219   -273.96017    229018.04   -21334.919    1558.2261   -22893.145    4.2740898   0.87555383 
    1200    227.41595   -252.19692    229018.04    -21395.24    1506.2577   -22901.497    4.6610983   0.87555383 
    1300    232.41974   -341.90291    229018.04   -21346.357    1539.3996   -22885.756    4.8613035   0.87555383 
    1400     238.1033    -520.3984    229018.04   -21283.562    1577.0438   -22860.606    5.4147645   0.87555383 
    1500    240.94118   -414.28097    229018.04   -21287.232    1595.8402   -22883.072     5.865521   0.87555383 
    1600    243.12795   -336.13751    229018.04   -21279.526    1610.3239    -22889.85    6.2653843   0.87555383 
    1700    236.93693   -174.18371    229018.04   -21311.678    1569.3186   -22880.997    6.6710861   0.87555383 
    1800    233.91184   -281.03118    229018.04   -21328.667    1549.2823    -22877.95    7.0601111   0.87555383 
    1900    243.08343   -341.69157    229018.04   -21243.825     1610.029   -22853.854    7.3672159   0.87555383 
    2000     237.6886   -300.51215    229018.04    -21221.54    1574.2972   -22795.837     7.825954   0.87555383 
    2100    238.96476   -400.56996    229018.04   -21243.457    1582.7496   -22826.207    8.4014175   0.87555383 
    2200    240.73213   -404.42239    229018.04   -21239.903    1594.4556   -22834.358    8.8129409   0.87555383 
    2300    231.08351    -146.8221    229018.04   -21288.287    1530.5492   -22818.836    9.3461253   0.87555383 
    2400    238.94267   -325.21686    229018.04   -21298.241    1582.6033   -22880.845    9.8819734   0.87555383 
    2500     236.2812   -283.52234    229018.04   -21281.162    1564.9754   -22846.138    10.258826   0.87555383 
    2600    232.32977   -226.34263    229018.04   -21309.795    1538.8037   -22848.599    10.600111   0.87555383 
    2700    241.76734   -214.74227    229018.04   -21287.085    1601.3121   -22888.397    11.205166   0.87555383 
    2800    238.66445   -329.01139    229018.04   -21270.796    1580.7605   -22851.556    11.652253   0.87555383 
    2900    225.83883   -376.32755    229018.04   -21324.669    1495.8118   -22820.481    12.160041   0.87555383 
    3000    235.37928   -371.20099    229018.04   -21342.556    1559.0017   -22901.558    12.687028   0.87555383 
    3100    233.65185    -243.5712    229018.04   -21340.617    1547.5603   -22888.177    12.776996   0.87555383 
    3200    227.14174   -270.63373    229018.04    -21353.51    1504.4415   -22857.951    13.150884   0.87555383 
    3300    233.10694   -217.05272    229018.04   -21312.289    1543.9512    -22856.24    13.510469   0.87555383 
    3400    237.11257    -358.4238    229018.04   -21300.333    1570.4819   -22870.815    13.901477   0.87555383 
    3500    234.36822   -304.69519    229018.04   -21301.309    1552.3051   -22853.614    14.500505   0.87555383 
    3600    235.41486   -390.91171    229018.04   -21292.792    1559.2373   -22852.029    14.886909   0.87555383 
    3700    234.57198   -134.26156    229018.04    -21330.48    1553.6547   -22884.135    15.083451   0.87555383 
    3800    237.06641   -206.85994    229018.04   -21335.821    1570.1761   -22905.997    15.469971   0.87555383 
    3900    233.83149   -135.39416    229018.04   -21342.251    1548.7501   -22891.001    15.731443   0.87555383 
    4000    233.41939   -261.85509    229018.04   -21372.285    1546.0206   -22918.306    16.179148   0.87555383 
    4100    238.92963   -354.65386    229018.04   -21333.959    1582.5169   -22916.476     16.44564   0.87555383 
    4200    232.74772   -277.48462    229018.04   -21306.832    1541.5719   -22848.404    16.849116   0.87555383 
    4300      244.234   -150.01791    229018.04     -21209.5    1617.6497    -22827.15    17.618187   0.87555383 
    4400    238.37972   -352.96462    229018.04   -21214.968    1578.8747   -22793.842     18.46158   0.87555383 
    4500    235.89772   -89.316523    229018.04   -21265.792    1562.4355   -22828.227    18.954994   0.87555383 
    4600    236.40433     -195.114    229018.04   -21290.531    1565.7909   -22856.322    19.410885   0.87555383 
    4700    238.38361   -469.66352    229018.04   -21337.941    1578.9004   -22916.842    19.428258   0.87555383 
    4800    239.00813   -501.73951    229018.04   -21292.395    1583.0369   -22875.432    19.782574   0.87555383 
    4900    238.32835   -379.55221    229018.04   -21311.057    1578.5345   -22889.591     20.35166   0.87555383 
    5000    228.10331   -211.91995    229018.04   -21340.538    1510.8104   -22851.349    20.483836   0.87555383 
    5100     229.0612   -166.45442    229018.04    -21342.94    1517.1548   -22860.095    20.506936   0.87555383 
    5200    238.29298   -209.99448    229018.04   -21298.033    1578.3002   -22876.333    20.735326   0.87555383 
    5300    228.50521   -279.05467    229018.04    -21345.09    1513.4723   -22858.562     20.80691   0.87555383 
    5400    238.22618   -213.96323    229018.04   -21318.928    1577.8577   -22896.786    21.010401   0.87555383 
    5500    230.09946   -327.07421    229018.04   -21363.253    1524.0316   -22887.284    21.377001   0.87555383 
    5600    230.80603    -287.6119    229018.04   -21371.887    1528.7114   -22900.598    21.438985   0.87555383 
    5700    234.41979   -299.70013    229018.04   -21334.265    1552.6467   -22886.912    21.408933   0.87555383 
    5800    237.52395   -328.44549    229018.04   -21256.784    1573.2066    -22829.99    21.556216   0.87555383 
    5900    233.64505   -333.39612    229018.04   -21278.391    1547.5153   -22825.906    21.794645   0.87555383 
    6000    225.77544   -110.94886    229018.04   -21361.603     1495.392   -22856.995    22.147796   0.87555383 
    6100    233.24981   -326.25397    229018.04   -21332.653    1544.8974   -22877.551    22.453093   0.87555383 
    6200     234.0121    -286.0499    229018.04   -21311.986    1549.9464   -22861.932    22.648556   0.87555383 
    6300    233.11643   -384.39889    229018.04   -21280.779     1544.014   -22824.793    22.633144   0.87555383 
    6400    243.40542   -342.02557    229018.04   -21284.551    1612.1617   -22896.713    22.649587   0.87555383 
    6500    234.67533   -286.46766    229018.04    -21325.48    1554.3392   -22879.819    22.754226   0.87555383 
    6600    235.90823   -300.91516    229018.04    -21382.44    1562.5051   -22944.945    22.935538   0.87555383 
    6700    222.49514   -329.93691    229018.04   -21421.871    1473.6654   -22895.537    23.335273   0.87555383 
    6800    237.93249   -385.47971    229018.04   -21378.399    1575.9125   -22954.311    23.864244   0.87555383 
    6900    224.43849    -301.2596    229018.04   -21421.058    1486.5369   -22907.595    24.149504   0.87555383 
    7000    221.71764   -249.43431    229018.04   -21425.788    1468.5158   -22894.304    24.307037   0.87555383 
    7100    227.47191   -179.08485    229018.04   -21345.994    1506.6283   -22852.622    24.577528   0.87555383 
    7200    236.20007   -350.03508    229018.04   -21355.457    1564.4381   -22919.895    24.532161   0.87555383 
    7300    228.29634   -419.60022    229018.04   -21424.645    1512.0888   -22936.734    24.847571   0.87555383 
    7400    227.81453   -481.44028    229018.04   -21429.686    1508.8976   -22938.584    24.991873   0.87555383 
    7500    230.92992   -274.73266    229018.04   -21462.378     1529.532    -22991.91    25.319073   0.87555383 
    7600     227.8801   -364.56808    229018.04   -21470.145    1509.3319   -22979.477    25.788489   0.87555383 
    7700    235.55311   -251.55665    229018.04   -21423.384    1560.1531   -22983.537    26.113958   0.87555383 
    7800    235.49504   -251.67456    229018.04   -21379.984    1559.7684   -22939.752    25.986173   0.87555383 
    7900    234.76339   -415.18965    229018.04   -21354.198    1554.9224    -22909.12    26.420446   0.87555383 
    8000    241.11147   -367.96295    229018.04   -21350.281    1596.9681   -22947.249    26.615161   0.87555383 
    8100    238.27138   -312.04495    229018.04   -21370.802    1578.1571   -22948.959    26.695674   0.87555383 
    8200    231.77877   -407.99299    229018.04   -21407.053    1535.1542   -22942.208    26.973601   0.87555383 
    8300    231.78372   -304.22571    229018.04   -21419.157     1535.187   -22954.344    27.474085   0.87555383 
    8400    224.65722   -318.29837    229018.04   -21410.488    1487.9857   -22898.474    27.829034   0.87555383 
    8500    229.62705   -307.08535    229018.04   -21395.474    1520.9026   -22916.376    28.022358   0.87555383 
    8600     236.0539   -352.55054    229018.04   -21352.316      1563.47   -22915.786    28.538643   0.87555383 
    8700     229.6233   -259.24321    229018.04   -21412.921    1520.8778   -22933.798    28.998331   0.87555383 
    8800    239.62494    -234.1556    229018.04   -21360.353    1587.1222   -22947.475    29.449639   0.87555383 
    8900    230.98027   -279.12458    229018.04   -21393.886    1529.8655   -22923.751    29.954953   0.87555383 
    9000    232.17481   -360.78889    229018.04   -21335.777    1537.7774   -22873.555    30.259294   0.87555383 
    9100    236.84047   -276.93663    229018.04   -21305.174    1568.6797   -22873.854    30.896454   0.87555383 
    9200    226.07383   -320.48968    229018.04   -21337.284    1497.3683   -22834.652    31.351217   0.87555383 
    9300    232.94026   -274.08429    229018.04    -21354.11    1542.8472   -22896.957    31.654951   0.87555383 
    9400    227.93156   -116.73535    229018.04   -21395.425    1509.6727   -22905.098    31.808338   0.87555383 
    9500    234.95569   -279.48851    229018.04   -21349.575    1556.1961   -22905.771    32.037772   0.87555383 
    9600    229.42644   -253.07274    229018.04   -21412.571    1519.5739   -22932.145    32.413732   0.87555383 
    9700    242.05262   -305.26761    229018.04   -21376.935    1603.2016   -22980.137    33.153733   0.87555383 
    9800    228.03771   -399.55504    229018.04   -21387.813    1510.3759   -22898.189    33.701756   0.87555383 
    9900    236.89453   -319.94209    229018.04   -21342.561    1569.0378   -22911.598    34.308435   0.87555383 
   10000    239.35134   -285.84677    229018.04   -21263.581    1585.3101   -22848.891    34.665014   0.87555383 
Loop time of 30.4125 on 60 procs for 10000 steps with 8943 atoms

Performance: 142.047 ns/day, 0.169 hours/ns, 328.813 timesteps/s
98.0% CPU use with 60 MPI tasks x no OpenMP threads

MPI task timing breakdown:
Section |  min time  |  avg time  |  max time  |%varavg| %total
---------------------------------------------------------------
Pair    | 0.00073075 | 8.1849     | 26.968     | 360.6 | 26.91
Neigh   | 0.0029171  | 0.25211    | 0.73667    |  53.0 |  0.83
Comm    | 0.19598    | 8.6982     | 26.959     | 329.8 | 28.60
Output  | 0.15605    | 0.15625    | 0.16296    |   0.2 |  0.51
Modify  | 0.40148    | 13.03      | 29.955     | 366.5 | 42.85
Other   |            | 0.0907     |            |       |  0.30

Nlocal:    149.05 ave 374 max 0 min
Histogram: 24 0 4 12 0 0 0 0 2 18
Nghost:    817.767 ave 1303 max 360 min
Histogram: 9 3 0 4 21 3 4 4 4 8
Neighs:    0 ave 0 max 0 min
Histogram: 60 0 0 0 0 0 0 0 0 0
FullNghs:  15005.9 ave 45018 max 0 min
Histogram: 28 12 0 0 0 0 0 2 10 8

Total # of neighbors = 900352
Ave neighs/atom = 100.677
Neighbor list builds = 561
Dangerous builds = 0
write_data 	    ${DIR}/data.${NAME}_eq
write_data 	    run_10/data.${NAME}_eq
write_data 	    run_10/data.ibeam_cooling_10_eq

undump              1
unfix               4



################################################
#######         Run Simulation         #########
################################################

reset_timestep      0
timestep	    10.0
log                 ${DIR}/log.run_${NAME}
log                 run_10/log.run_${NAME}
log                 run_10/log.run_ibeam_cooling_10
