
### Dimensions ###


### IMPORT ATOMS ###
read_data ../Box_Setup/data.Ibeam_235K
  orthogonal box = (0 0 0) to (78.752 72.9753 40.0024)
  6 by 5 by 4 MPI processor grid
  reading atoms ...
  9010 atoms
  reading velocities ...
  9010 velocities
group water type 2
2386 atoms in group water
group graphite type 1
6624 atoms in group graphite


# Define potential
#
pair_style          sw
pair_coeff * * MLC_e.sw C mW

# Add velocity/set timestep
#

fix		1 graphite setforce 0.0 0.0 0.0
velocity 	graphite set 0.0 0.0 0.0
velocity            water create ${START_TEMP} ${SEED} rot yes dist gaussian
velocity            water create 235 ${SEED} rot yes dist gaussian
velocity            water create 235 15942 rot yes dist gaussian
timestep            5.0

# Define output
#
compute 1 water msd
compute 2 water temp


thermo	            100
thermo_style custom step c_2 press vol etotal ke pe c_1[4] density

# Neighbor lists
#
neigh_modify        delay 0 every 1 check yes


# Set fixes
#
fix                 2 water momentum 10 linear 1 1 1 rescale
fix                 3 all nve
fix                 4 water temp/csvr ${START_TEMP} ${START_TEMP} 500.0 928347
fix                 4 water temp/csvr 235 ${START_TEMP} 500.0 928347
fix                 4 water temp/csvr 235 235 500.0 928347

# Run 0.05 ns equilibration
#
dump                1 all custom 100 ${DIR}/eq.${NAME}.dump id type x y z vx vy vz
dump                1 all custom 100 run_12/eq.${NAME}.dump id type x y z vx vy vz
dump                1 all custom 100 run_12/eq.ibeam_cooling_12.dump id type x y z vx vy vz
run                 10000
Neighbor list info ...
  update every 1 steps, delay 0 steps, check yes
  max neighbors/atom: 2000, page size: 100000
  master list distance cutoff = 6.67472
  ghost atom cutoff = 6.67472
  binsize = 3.33736, bins = 24 22 12
  1 neighbor lists, perpetual/occasional/extra = 1 0 0
  (1) pair sw, perpetual
      attributes: full, newton on
      pair build: full/bin/atomonly
      stencil: full/bin/3d
      bin: standard
Per MPI rank memory allocation (min/avg/max) = 0.4724 | 3.952 | 4.75 Mbytes
Step c_2 Press Volume TotEng KinEng PotEng c_1[4] Density 
       0          235   -397.42353       229892   -22660.138    1670.6695   -24330.807            0   0.88510766 
     100    237.98883   -487.02934       229892   -22652.382    1691.9178     -24344.3   0.78131368   0.88510766 
     200     236.1244   -381.64131       229892    -22667.46    1678.6631   -24346.123    1.1571643   0.88510766 
     300    233.07252   -367.77585       229892       -22666    1656.9666   -24322.967    1.4624737   0.88510766 
     400    232.70939   -396.46795       229892   -22658.535     1654.385    -24312.92    1.7284256   0.88510766 
     500    236.36399   -308.98645       229892   -22632.428    1680.3665   -24312.795      2.02975   0.88510766 
     600    240.23662   -241.48304       229892   -22566.471    1707.8979   -24274.369    2.3862271   0.88510766 
     700    239.75555   -302.29306       229892   -22575.733    1704.4778   -24280.211    2.7019198   0.88510766 
     800    234.91766   -351.89627       229892   -22555.834    1670.0842   -24225.918    2.9057696   0.88510766 
     900    231.38868   -349.50371       229892   -22591.795    1644.9958    -24236.79    3.1827059   0.88510766 
    1000    232.82367   -413.38042       229892   -22625.865    1655.1975   -24281.062    3.4959837   0.88510766 
    1100    233.15086   -429.22534       229892   -22609.479    1657.5235   -24267.002    3.7599643   0.88510766 
    1200    232.76497   -328.72285       229892   -22615.243    1654.7802   -24270.023    4.0903904   0.88510766 
    1300    242.88451   -499.13245       229892   -22576.543    1726.7223   -24303.265    4.3221199   0.88510766 
    1400     237.0759   -339.70751       229892   -22609.509    1685.4276   -24294.937     4.616049   0.88510766 
    1500    232.80668   -273.16609       229892   -22632.487    1655.0767   -24287.563    4.9605593   0.88510766 
    1600    233.72147   -405.81598       229892   -22594.309    1661.5801   -24255.889    5.3522012   0.88510766 
    1700    230.35141   -406.38452       229892   -22595.931    1637.6216   -24233.552    5.6014372   0.88510766 
    1800    236.32443   -338.85084       229892   -22554.621    1680.0852   -24234.706     6.060624   0.88510766 
    1900      243.184   -456.23338       229892   -22518.945    1728.8515   -24247.796    6.5385054   0.88510766 
    2000    245.00759   -410.25514       229892   -22480.425    1741.8158   -24222.241    7.0146421   0.88510766 
    2100    234.07501   -395.19142       229892   -22589.288    1664.0936   -24253.381    7.6364303   0.88510766 
    2200     231.0844   -385.16313       229892   -22554.744    1642.8326   -24197.576    7.8588782   0.88510766 
    2300    236.17618   -455.14317       229892   -22529.025    1679.0313   -24208.057    8.0836677   0.88510766 
    2400     239.2317   -404.07211       229892   -22534.516    1700.7536    -24235.27    8.2753581   0.88510766 
    2500    235.84792   -363.58613       229892   -22564.376    1676.6976   -24241.074    8.7579708   0.88510766 
    2600    235.30003   -540.45306       229892    -22580.27    1672.8025   -24253.072    9.2224061   0.88510766 
    2700    237.85017   -292.17182       229892   -22570.774     1690.932   -24261.706    9.7066625   0.88510766 
    2800    236.22983   -375.20601       229892   -22514.372    1679.4126   -24193.785    10.157993   0.88510766 
    2900    236.87818   -250.94785       229892   -22523.893    1684.0219   -24207.915    10.409832   0.88510766 
    3000    244.11364   -306.87409       229892   -22526.934    1735.4605   -24262.395    10.672783   0.88510766 
    3100     239.4829   -332.59828       229892   -22524.432    1702.5395   -24226.972    10.995533   0.88510766 
    3200    239.36604   -329.61055       229892   -22594.804    1701.7087   -24296.512     11.15893   0.88510766 
    3300    230.54433   -521.98642       229892   -22692.113    1638.9931   -24331.106    11.296981   0.88510766 
    3400    235.72297   -431.30403       229892   -22649.069    1675.8093   -24324.878    11.489126   0.88510766 
    3500    238.99983   -263.21478       229892   -22658.485    1699.1052    -24357.59    11.809078   0.88510766 
    3600     231.7366   -230.35229       229892    -22646.22    1647.4692    -24293.69    12.067355   0.88510766 
    3700    239.90801   -391.88226       229892    -22621.23    1705.5617   -24326.792    12.385802   0.88510766 
    3800    237.56262   -195.90753       229892   -22611.099    1688.8878   -24299.987    12.575988   0.88510766 
    3900    236.25754   -450.67257       229892   -22622.075    1679.6097   -24301.684    13.028795   0.88510766 
    4000    237.21802   -424.32584       229892   -22659.958    1686.4379   -24346.396    13.323323   0.88510766 
    4100     235.0203   -357.51726       229892   -22659.157    1670.8138   -24329.971    13.651173   0.88510766 
    4200    242.45206   -319.19562       229892   -22634.768    1723.6479   -24358.416    13.866029   0.88510766 
    4300    230.08439   -392.53568       229892   -22679.346    1635.7233   -24315.069    13.997638   0.88510766 
    4400    230.08871   -271.29673       229892   -22643.126     1635.754    -24278.88     14.13717   0.88510766 
    4500    233.22938   -428.01769       229892   -22665.007    1658.0818   -24323.089    14.562073   0.88510766 
    4600    233.17699   -263.97875       229892   -22717.812    1657.7093   -24375.522    14.620075   0.88510766 
    4700    233.71911   -232.10389       229892   -22657.375    1661.5634   -24318.938    15.219878   0.88510766 
    4800    234.54474    -335.4851       229892   -22616.292     1667.433   -24283.725    15.342608   0.88510766 
    4900    234.80057   -297.27313       229892   -22584.061    1669.2517   -24253.313    15.677042   0.88510766 
    5000    236.00002   -480.40775       229892   -22636.586    1677.7789   -24314.365    15.835348   0.88510766 
    5100    237.79563   -461.74665       229892   -22580.724    1690.5443   -24271.268    15.947925   0.88510766 
    5200    234.81447   -140.75043       229892   -22629.264    1669.3506   -24298.614     16.21738   0.88510766 
    5300    233.45868   -571.24172       229892   -22699.595    1659.7119   -24359.307    16.495918   0.88510766 
    5400    230.12887   -366.31027       229892   -22679.203    1636.0395   -24315.242    16.738621   0.88510766 
    5500     228.6509   -249.83143       229892   -22679.225    1625.5323   -24304.758    16.963747   0.88510766 
    5600    236.15294   -396.95411       229892   -22699.539     1678.866   -24378.405    17.068233   0.88510766 
    5700    233.70261   -410.41927       229892   -22683.213    1661.4461    -24344.66    17.005262   0.88510766 
    5800    235.83357    -373.9382       229892   -22650.104    1676.5956   -24326.699    17.283512   0.88510766 
    5900    233.42302   -462.68482       229892   -22666.288    1659.4584   -24325.746    17.773927   0.88510766 
    6000     230.6163   -328.18372       229892   -22690.628    1639.5048   -24330.133    18.030707   0.88510766 
    6100    228.83458   -165.18163       229892   -22695.814    1626.8381   -24322.652    18.285904   0.88510766 
    6200    228.53571   -394.26646       229892    -22724.57    1624.7134   -24349.284    18.902167   0.88510766 
    6300     236.8171   -324.10062       229892   -22666.028    1683.5877   -24349.615    19.201967   0.88510766 
    6400    234.52149   -438.29371       229892   -22715.224    1667.2677   -24382.492    19.412237   0.88510766 
    6500    227.33438   -164.32668       229892   -22727.793    1616.1728   -24343.966    19.828301   0.88510766 
    6600    226.83228   -455.03585       229892    -22733.97    1612.6033   -24346.573    20.225242   0.88510766 
    6700    227.79818   -363.20606       229892   -22762.904    1619.4701   -24382.374    20.200301   0.88510766 
    6800    227.85081   -310.23932       229892   -22737.093    1619.8442   -24356.937    20.454677   0.88510766 
    6900    236.28258   -240.69577       229892    -22691.04    1679.7877   -24370.827    20.458997   0.88510766 
    7000    233.82508   -225.88853       229892    -22694.96    1662.3167   -24357.277    20.669644   0.88510766 
    7100    228.75522   -512.19882       229892   -22699.814    1626.2739   -24326.088    20.826574   0.88510766 
    7200    227.11234   -480.68452       229892   -22736.982    1614.5943   -24351.576    20.976371   0.88510766 
    7300    232.26259   -231.34374       229892   -22763.548    1651.2086   -24414.757    21.320181   0.88510766 
    7400    232.91903   -322.02165       229892   -22712.696    1655.8754   -24368.571    21.690961   0.88510766 
    7500    229.52291   -443.67901       229892   -22685.194    1631.7316   -24316.926    21.900257   0.88510766 
    7600     237.1158   -228.09018       229892     -22649.4    1685.7112   -24335.111    22.210066   0.88510766 
    7700    231.60463   -446.81478       229892   -22659.336     1646.531   -24305.867    22.721059   0.88510766 
    7800    231.62044   -410.32536       229892   -22725.354    1646.6435   -24371.998    22.794287   0.88510766 
    7900    231.35433   -519.71504       229892    -22687.76    1644.7516   -24332.512    23.000424   0.88510766 
    8000    240.10285    -375.2748       229892   -22619.576    1706.9468   -24326.523    23.302351   0.88510766 
    8100    237.66466   -388.65749       229892   -22609.141    1689.6132   -24298.754    23.501285   0.88510766 
    8200    238.19155   -322.39259       229892   -22626.988     1693.359   -24320.347    23.652897   0.88510766 
    8300    237.29337   -412.85927       229892   -22580.988    1686.9736   -24267.962    23.845381   0.88510766 
    8400    239.64977   -207.26594       229892   -22573.307    1703.7258   -24277.033    23.698339   0.88510766 
    8500    233.20549    -550.3833       229892   -22602.441    1657.9119   -24260.352    23.914686   0.88510766 
    8600    233.93692    -408.1341       229892   -22604.415    1663.1118   -24267.527    24.286959   0.88510766 
    8700    233.68043    -393.7296       229892   -22630.177    1661.2884   -24291.465    24.336076   0.88510766 
    8800    237.17947   -193.54192       229892   -22647.302    1686.1638   -24333.466    24.700695   0.88510766 
    8900    234.17426   -435.37013       229892   -22680.732    1664.7991   -24345.531    24.888597   0.88510766 
    9000     232.4822   -416.60434       229892   -22647.322    1652.7699   -24300.092     24.96444   0.88510766 
    9100    235.31321   -307.52474       229892   -22678.626    1672.8962   -24351.523     25.36978   0.88510766 
    9200    233.10983   -364.58974       229892   -22637.179    1657.2318    -24294.41     25.71123   0.88510766 
    9300    227.98509   -376.90825       229892   -22695.668    1620.7989   -24316.467    25.869894   0.88510766 
    9400    235.26315   -202.57202       229892   -22668.828    1672.5403   -24341.368    26.315463   0.88510766 
    9500    231.68417   -338.15255       229892   -22708.675    1647.0965   -24355.772    26.448987   0.88510766 
    9600    232.80383   -394.47151       229892   -22698.001    1655.0564   -24353.058    26.783078   0.88510766 
    9700    233.70642   -269.00355       229892   -22668.105    1661.4731   -24329.578    27.098916   0.88510766 
    9800    239.59276   -483.05243       229892   -22636.364    1703.3205   -24339.684    27.376874   0.88510766 
    9900    232.84434   -371.89074       229892   -22657.181    1655.3444   -24312.526    27.743821   0.88510766 
   10000    227.02918   -381.67768       229892   -22659.626    1614.0031   -24273.629    28.097683   0.88510766 
Loop time of 18.2409 on 120 procs for 10000 steps with 9010 atoms

Performance: 236.830 ns/day, 0.101 hours/ns, 548.217 timesteps/s
98.0% CPU use with 120 MPI tasks x no OpenMP threads

MPI task timing breakdown:
Section |  min time  |  avg time  |  max time  |%varavg| %total
---------------------------------------------------------------
Pair    | 0.00047493 | 4.3566     | 15.178     | 241.8 | 23.88
Neigh   | 0.00042939 | 0.13968    | 0.52279    |  46.2 |  0.77
Comm    | 0.03311    | 7.4359     | 16.653     | 209.5 | 40.76
Output  | 0.16881    | 0.16898    | 0.17557    |   0.1 |  0.93
Modify  | 0.39604    | 6.0068     | 17.906     | 284.2 | 32.93
Other   |            | 0.133      |            |       |  0.73

Nlocal:    75.0833 ave 232 max 0 min
Histogram: 54 6 27 3 0 0 0 0 4 26
Nghost:    604.717 ave 1011 max 0 min
Histogram: 10 7 3 0 10 20 30 10 20 10
Neighs:    0 ave 0 max 0 min
Histogram: 120 0 0 0 0 0 0 0 0 0
FullNghs:  7464.88 ave 28962 max 0 min
Histogram: 70 20 0 0 0 0 0 2 13 15

Total # of neighbors = 895786
Ave neighs/atom = 99.4213
Neighbor list builds = 570
Dangerous builds = 0
write_data 	    ${DIR}/data.${NAME}_eq
write_data 	    run_12/data.${NAME}_eq
write_data 	    run_12/data.ibeam_cooling_12_eq

undump              1
unfix               4



################################################
#######         Run Simulation         #########
################################################

reset_timestep      0
timestep	    10.0
log                 ${DIR}/log.run_${NAME}
log                 run_12/log.run_${NAME}
log                 run_12/log.run_ibeam_cooling_12
