
# Set production fixes - Nose/Hoover
#
fix                 4 water temp/csvr ${START_TEMP} ${END_TEMP} 500.0 928347
fix                 4 water temp/csvr 235 ${END_TEMP} 500.0 928347
fix                 4 water temp/csvr 235 225 500.0 928347


## divide "droplet" into core and surface
#region		core_reg cylinder z 135 135 44.6 20 INF units box
#region		surface_reg cylinder z 135 135 44.6 20 INF units box side out
#group		core dynamic all region core_reg
#group		surface dynamic all region surface_reg

## compute pressure core
#compute        peratom_core core stress/atom NULL
#compute        p_core core reduce sum c_peratom_core[1] c_peratom_core[2] c_peratom_core[3]
#variable       press_core equal -(c_p_core[1]+c_p_core[2]+c_p_core[3])/(3*1249982.5)


## compute pressure surface
#compute        peratom_surf surface stress/atom NULL
#compute        p_surf surface reduce sum c_peratom_surf[1] c_peratom_surf[2] #c_peratom_surf[3]
#variable       press_surf equal -(c_p_surf[1]+c_p_surf[2]+c_p_surf[3])/(3*42395)

## compute total pressure of drop
compute        peratom water stress/atom NULL
compute        p water reduce sum c_peratom[1] c_peratom[2] c_peratom[3]
variable       press equal -(c_p[1]+c_p[2]+c_p[3])/(3*58187)


# compute order parameter
compute        3 all orientorder/atom nnn NULL cutoff 3.5

# compute center of mass of bridge
compute 	4 water com

# Run simulation
thermo_style        custom step c_2 press vol etotal ke pe v_press c_1[4] c_4[*]
thermo              200
dump		     1 water custom 400 ${DIR}/prod.${NAME}.dump id type x y z vx vy vz c_3[*] c_peratom[*]
dump		     1 water custom 400 run_12/prod.${NAME}.dump id type x y z vx vy vz c_3[*] c_peratom[*]
dump		     1 water custom 400 run_12/prod.ibeam_cooling_12.dump id type x y z vx vy vz c_3[*] c_peratom[*]
run                 ${STEPS}
run                 4000000
Neighbor list info ...
  update every 1 steps, delay 0 steps, check yes
  max neighbors/atom: 2000, page size: 100000
  master list distance cutoff = 6.67472
  ghost atom cutoff = 6.67472
  binsize = 3.33736, bins = 24 22 12
  2 neighbor lists, perpetual/occasional/extra = 1 1 0
  (1) pair sw, perpetual
      attributes: full, newton on
      pair build: full/bin/atomonly
      stencil: full/bin/3d
      bin: standard
  (2) compute orientorder/atom, occasional, copy from (1)
      attributes: full, newton on
      pair build: copy
      stencil: none
      bin: none
Per MPI rank memory allocation (min/avg/max) = 0.8658 | 6.221 | 7.207 Mbytes
Step c_2 Press Volume TotEng KinEng PotEng v_press c_1[4] c_4[1] c_4[2] c_4[3] 
       0    227.02918   -381.67768       229892   -22659.626    1614.0031   -24273.629   -882.25565    28.097683    39.430733    35.562826    26.715461 
     200    235.76906   -479.47566       229892   -22670.159    1676.1369   -24346.296    -1338.669     30.29163    39.429123    35.562118    26.723473 
     400    239.39628   -285.72801       229892   -22635.032    1701.9237   -24336.956   -526.73273    31.990989    39.428824    35.563501    26.712226 
     600    242.52601   -345.93031       229892   -22555.426    1724.1737     -24279.6   -790.74177    32.681269     39.42977    35.562358    26.695634 
     800    232.57705   -443.30631       229892   -22565.076    1653.4442    -24218.52   -1167.7647    33.609279    39.432625    35.563219    26.684778 
    1000    235.91667   -387.62744       229892   -22635.469    1677.1864   -24312.655   -979.63148    34.686838    39.430246     35.56542     26.67546 
    1200    235.22189    -300.5898       229892   -22620.376     1672.247   -24292.623   -585.83688    35.682886    39.427407    35.568403    26.679824 
    1400    233.11813   -418.41525       229892   -22615.564    1657.2909   -24272.855   -1094.0971    36.802759    39.424137    35.567468    26.671558 
    1600    232.46155   -333.33174       229892   -22615.612    1652.6231   -24268.235   -746.04652    37.679596    39.422932    35.569644     26.65245 
    1800    239.04611   -513.64997       229892   -22596.862    1699.4343   -24296.297   -1455.0458    38.954158    39.421134     35.56921    26.639489 
    2000    241.72342   -349.19995       229892   -22522.187    1718.4679   -24240.655   -799.96596     40.03439    39.420082     35.57206    26.658582 
    2200    233.65714   -471.66041       229892   -22546.055    1661.1228   -24207.178   -1282.2822    41.015136    39.417538    35.573671    26.643516 
    2400    234.70573   -375.52537       229892   -22498.808    1668.5775   -24167.385   -929.58988    42.830346    39.417341     35.57684    26.623161 
    2600    230.32069   -192.27409       229892   -22555.029    1637.4032   -24192.432   -167.09665    44.241829     39.41746    35.577292    26.597593 
    2800     239.3464   -435.26358       229892   -22473.106    1701.5691   -24174.675    -1164.141    45.361728    39.419536    35.578384    26.587681 
    3000    237.71451   -228.83532       229892    -22496.98    1689.9676   -24186.947   -337.95277    46.258859    39.419987    35.577041    26.581971 
    3200    233.56425   -389.56758       229892   -22554.707    1660.4625   -24215.169   -998.91719    47.462116    39.419292    35.578156    26.582526 
    3400    234.07373   -515.28701       229892   -22589.139    1664.0844   -24253.223   -1491.7581    49.336567    39.416207    35.577722    26.587853 
    3600    233.16299   -259.84907       229892   -22578.162    1657.6098   -24235.772   -460.08963    51.001508     39.41565    35.578037    26.568093 
    3800    238.96945   -426.81736       229892   -22542.861    1698.8893    -24241.75   -1102.6679    51.996066    39.414368    35.580624    26.549328 
    4000    236.57558   -511.74225       229892   -22593.017    1681.8707   -24274.887   -1494.5157    52.879252    39.413556    35.582113    26.551069 
    4200    238.02621   -378.50359       229892    -22544.89    1692.1836   -24237.074   -920.06281    54.076854    39.414197    35.580935    26.553252 
    4400    228.94415   -432.78345       229892   -22562.667    1627.6171   -24190.284   -1160.0641    54.218913    39.414188    35.580541    26.546026 
    4600     231.1009   -336.35506       229892   -22659.658    1642.9499   -24302.608   -760.75587    54.224079    39.415029     35.58029     26.54162 
    4800    238.16556   -99.005905       229892   -22535.827    1693.1742   -24229.002    218.06203    55.793883    39.414688    35.579656    26.545079 
    5000    234.34392    -408.2119       229892   -22586.691    1666.0053   -24252.697   -1039.7887    57.275256    39.413984    35.576125    26.561355 
    5200    232.02556   -296.13129       229892   -22580.168    1649.5236   -24229.692   -616.97952    60.345007    39.414167    35.574761    26.560836 
    5400    235.49723    -421.8192       229892   -22597.416    1674.2044    -24271.62   -1110.4334    62.848065    39.412029    35.572107    26.550116 
    5600    238.75854   -433.62269       229892   -22610.946    1697.3898   -24308.336   -1120.7822    63.238381    39.410213     35.57015    26.556509 
    5800    234.08926   -283.64837       229892   -22544.648    1664.1948   -24208.842   -534.84833    64.085826      39.4092    35.569666    26.563522 
    6000    236.72506   -401.45028       229892   -22576.945    1682.9334   -24259.879   -988.36758    65.752686    39.409552    35.571463    26.575497 
    6200    233.17961   -217.01155       229892   -22598.287     1657.728   -24256.015   -248.70562    67.530834    39.408944    35.572446      26.5761 
    6400    230.46001   -421.80903       229892   -22579.959    1638.3936   -24218.352   -1097.5623    68.146135    39.409811     35.57408     26.58946 
    6600    233.49948   -312.93713       229892   -22581.549    1660.0019   -24241.551   -632.61174    69.267934    39.409793    35.576154     26.59625 
    6800    233.93202   -384.81771       229892   -22606.906     1663.077   -24269.983   -940.01716    70.834762    39.407861    35.574853    26.607741 
    7000    235.67204   -377.46579       229892   -22560.786    1675.4472   -24236.233   -925.51991    71.460315    39.406121    35.574338    26.627308 
    7200    231.24967   -302.79286       229892    -22662.81    1644.0075   -24306.817    -606.5656    71.352264    39.405356    35.574121    26.638453 
    7400    235.26948   -453.45874       229892   -22658.521    1672.5853   -24331.106   -1207.8426    72.504009    39.406256    35.573059    26.652723 
    7600     238.0874    -551.2989       229892   -22584.138    1692.6186   -24276.756   -1601.5501    73.367653    39.406139    35.572718    26.645808 
    7800    234.29344   -533.11385       229892   -22713.136    1665.6464   -24378.782   -1529.8957     73.77564    39.406539    35.572791    26.640039 
    8000    239.29556    -278.0857       229892   -22567.122    1701.2076   -24268.329   -565.26149    74.442582    39.407309    35.572909    26.629535 
    8200    236.08143   -389.17289       229892   -22598.808    1678.3577   -24277.166    -983.5108    75.114117    39.407947    35.575342    26.606194 
    8400    240.76763   -492.24234       229892   -22531.001    1711.6729   -24242.674   -1382.9817    75.990812    39.408172    35.576507    26.585098 
    8600     237.3793    -450.9107       229892   -22542.109    1687.5845   -24229.694   -1218.8351    77.019474    39.410431    35.574975    26.584885 
    8800    232.78869   -272.21919       229892   -22571.285    1654.9488   -24226.234   -539.61933    77.770772    39.410284    35.574568     26.59009 
    9000    238.87645   -414.27414       229892   -22585.751    1698.2281   -24283.979    -1076.256    78.615164    39.409335     35.57182    26.568333 
    9200     231.3555   -418.58215       229892   -22548.327    1644.7599   -24193.087   -1079.5601    79.537132    39.408767    35.570463    26.548612 
    9400    239.61127   -363.60747       229892   -22595.941    1703.4521   -24299.393   -879.46555    80.985329    39.407326    35.569192    26.539271 
    9600    234.49962   -296.78526       229892    -22683.27    1667.1122   -24350.382   -611.68409    82.578117    39.405652    35.568493    26.538875 
    9800    240.63871    -446.7463       229892   -22562.922    1710.7564   -24273.679   -1199.3472    82.886859    39.403644    35.568582     26.54775 
   10000     233.1573   -393.85445       229892   -22613.867    1657.5693   -24271.436   -1003.4047    83.740539    39.401522    35.569061    26.542423 
   10200    241.71675   -419.74368       229892   -22518.121    1718.4205   -24236.542   -1057.0235    86.066323     39.39914    35.567693    26.532066 
   10400    236.96409   -245.55317       229892   -22509.817    1684.6327    -24194.45    -400.6581    86.937827     39.39901     35.56961    26.510833 
   10600     235.2942   -299.18252       229892   -22599.718    1672.7611   -24272.479   -582.50819    86.730723    39.398377    35.570133    26.517462 
   10800    231.48015   -433.02213       229892   -22646.802    1645.6461   -24292.448   -1134.4133    87.932897    39.400037    35.568804    26.533601 
   11000    231.22812   -354.20005       229892   -22670.474    1643.8543   -24314.329   -836.28136    89.669204    39.398977    35.566077    26.531819 
   11200     230.3146   -427.82052       229892   -22659.093    1637.3599   -24296.453    -1143.783    90.734928    39.397878    35.566273    26.521955 
   11400    234.75267   -539.64127       229892   -22605.452    1668.9112   -24274.364   -1557.2368    91.889054    39.397751    35.566087     26.51614 
   11600    237.09433   -387.53423       229892    -22509.91    1685.5586   -24195.469   -970.48702    91.741095    39.397247    35.565994    26.532563 
   11800    234.91665   -350.08809       229892   -22502.482     1670.077   -24172.559   -808.25712    93.051137    39.397813    35.564886    26.527119 
   12000    242.21698    -339.2809       229892   -22535.609    1721.9767   -24257.585   -796.66099     94.09687    39.398564    35.562066     26.53409 
   12200    231.52511   -441.29495       229892   -22533.192    1645.9657   -24179.158    -1170.898    94.971608    39.398279    35.558883    26.539332 
   12400    237.98455   -490.45138       229892    -22584.52    1691.8874   -24276.407   -1359.9968     95.87693    39.399641    35.557403    26.569684 
   12600    234.34681   -486.40534       229892   -22546.775    1666.0259   -24212.801    -1326.242    96.596785    39.398175    35.554981     26.58012 
   12800    236.52306   -320.93636       229892   -22612.177    1681.4973   -24293.674   -707.40884    97.683347    39.397995    35.552718    26.589246 
   13000    232.58735   -339.62178       229892   -22669.221    1653.5174   -24322.739   -753.89131    99.187715    39.399472    35.553123    26.591219 
   13200    231.65373   -255.67098       229892   -22708.093    1646.8801   -24354.973    -437.4772    98.890246    39.400933    35.551663    26.590985 
   13400    229.40618   -352.03933       229892   -22744.137    1630.9018   -24375.039   -806.79716    98.883696    39.402083    35.549276    26.592672 
   13600    232.17031   -174.95897       229892   -22657.057    1650.5526    -24307.61   -158.28681    99.002886     39.40213    35.548776    26.579142 
   13800    237.13758   -322.70899       229892   -22601.311    1685.8661   -24287.177   -729.32159     99.47823    39.402129    35.548088    26.577961 
   14000    239.27577   -342.69917       229892   -22535.993    1701.0669   -24237.059   -827.22905    100.55618    39.400595    35.546624    26.567887 
   14200    231.62325   -272.88807       229892   -22580.718    1646.6634   -24227.381   -527.14429     102.6168    39.399884    35.546854    26.566024 
   14400     232.1906   -182.97746       229892   -22620.705    1650.6968   -24271.402   -190.75585     103.9719    39.399958    35.546973    26.576019 
   14600    238.65966   -248.28584       229892   -22591.631    1696.6869   -24288.317   -428.33125    104.73919    39.399931    35.546681    26.566938 
   14800    238.75499   -436.09894       229892   -22501.415    1697.3646    -24198.78   -1166.1752    106.15676    39.401293    35.545741    26.569035 
   15000    233.30755   -345.19885       229892   -22558.109    1658.6375   -24216.746   -786.19081    108.23604    39.400607    35.545859    26.544639 
   15200    237.00609   -365.32184       229892   -22543.636    1684.9313   -24228.567   -886.57771    109.12832    39.399961    35.541731    26.547939 
   15400    237.45935   -325.16924       229892    -22585.42    1688.1536   -24273.574   -730.26019    109.95266    39.400973    35.541241    26.543343 
   15600    241.11624   -420.20438       229892   -22492.223    1714.1513   -24206.374   -1089.7011    110.58905    39.399857    35.541216    26.551811 
   15800    233.55222   -584.81701       229892   -22513.211    1660.3769   -24173.587   -1752.5133    111.11615    39.399701    35.541934    26.552147 
   16000    238.46368   -425.19398       229892   -22545.324    1695.2936   -24240.618   -1085.7756    111.71321    39.399096    35.542195    26.577627 
   16200    231.55825   -409.71027       229892   -22494.423    1646.2013   -24140.624   -1080.6683    113.22916      39.3988     35.54338    26.578623 
   16400    236.54221   -445.83882       229892   -22548.325    1681.6334   -24229.958   -1160.5401    114.97963    39.398974    35.546133    26.583157 
   16600     241.6334   -377.27995       229892    -22486.18    1717.8279   -24204.007   -947.90272     116.1849    39.398024    35.544971    26.598718 
   16800    233.67966   -273.51114       229892   -22549.762    1661.2829   -24211.045    -525.0605    115.88697    39.396889    35.543346    26.574017 
   17000    227.92685   -412.18434       229892   -22625.121    1620.3849   -24245.506   -1049.6803    116.98615    39.397065    35.545015    26.581788 
   17200    239.37876    -356.7504       229892   -22603.218    1701.7991   -24305.017   -873.24701     116.8684     39.39731     35.54563    26.597049 
   17400    225.82892    -439.9609       229892    -22650.53    1605.4702       -24256    -1186.822    118.56931    39.396777    35.544203    26.597373 
   17600     238.2687   -246.41675       229892    -22535.01    1693.9074   -24228.918    -489.0761    121.35026    39.398559    35.543358    26.603278 
   17800     235.4325   -520.93174       229892   -22575.167    1673.7443   -24248.911    -1545.074    121.76873    39.398588    35.544251    26.595733 
   18000    237.59264   -346.23313       229892   -22530.285    1689.1012   -24219.386   -784.70177    123.09997      39.3981    35.544934    26.574116 
   18200    231.55186   -279.29166       229892   -22515.015    1646.1559   -24161.171   -524.31039    125.06125    39.397288    35.549156    26.562097 
   18400    229.49115    -480.4335       229892   -22489.877    1631.5058   -24121.383   -1393.6724     125.4684     39.39484    35.550591    26.556945 
   18600    232.91628   -549.94882       229892   -22499.534    1655.8558    -24155.39   -1622.6998    127.65621     39.39487    35.552178    26.563144 
   18800    237.22466   -307.91836       229892   -22569.061    1686.4851   -24255.546   -688.00688    128.85213    39.394783    35.551742    26.560503 
   19000    235.45295   -280.43169       229892   -22520.944    1673.8897   -24194.834   -562.88271     129.2054    39.395167    35.550833    26.564027 
   19200    233.79563   -390.67593       229892   -22529.987    1662.1074   -24192.094   -1016.9567    129.70964    39.392185    35.551231    26.587427 
   19400    239.87912   -314.70026       229892     -22510.2    1705.3563   -24215.556   -694.10385    132.02932    39.389816     35.55216    26.595073 
   19600    236.04607   -386.24617       229892   -22533.775    1678.1063   -24211.881   -1011.8088    133.12614    39.388849    35.553206    26.592824 
   19800    236.75924   -382.76525       229892    -22495.07    1683.1764   -24178.246    -967.3851    134.35945    39.384822    35.555091    26.599698 
   20000    240.62262   -572.66846       229892   -22501.936     1710.642   -24212.578   -1685.5184    135.06273    39.382704    35.557326    26.605467 
   20200    231.20872   -434.56076       229892   -22593.968    1643.7164   -24237.684   -1152.0807    135.80306     39.38259    35.557912    26.612368 
   20400    234.53835     -450.042       229892   -22463.227    1667.3876   -24130.615    -1234.169    137.14522    39.383183    35.559575    26.638901 
   20600    233.16384   -554.27494       229892   -22546.954    1657.6158    -24204.57   -1661.9634    138.28958     39.38282    35.558552    26.651992 
   20800    238.37172   -447.27408       229892   -22486.379    1694.6398   -24181.019   -1210.4592    139.42097     39.38304    35.559635     26.63465 
   21000    235.50472   -346.46896       229892   -22478.829    1674.2577   -24153.087   -833.05925    140.88127    39.384377    35.559771     26.64798 
   21200    241.87737   -512.63186       229892   -22479.123    1719.5623   -24198.686   -1501.1726    143.33564    39.385327    35.560566    26.645697 
   21400    237.53326   -203.73569       229892   -22498.531    1688.6791    -24187.21   -205.64546    144.05181    39.387121    35.559335    26.646864 
   21600     237.1806   -406.28057       229892   -22421.019    1686.1719   -24107.191   -1068.3167    145.92002    39.387206    35.559992    26.653195 
   21800    241.39495   -439.80309       229892   -22546.108    1716.1327   -24262.241    -1205.838     146.2063    39.387568    35.558798    26.645513 
   22000    231.31232   -314.75727       229892   -22628.972    1644.4529   -24273.425   -692.32174    146.30446    39.389749    35.559698    26.655686 
   22200    228.65601   -661.49555       229892    -22646.88    1625.5686   -24272.449   -2046.2702    147.01354    39.391324    35.557534    26.674786 
   22400    236.33079   -464.92927       229892   -22471.026    1680.1304   -24151.156   -1262.8145    147.33025     39.39271    35.558795    26.659059 
   22600    232.66587   -359.02498       229892   -22560.274    1654.0756   -24214.349   -874.89376    148.70432    39.392639    35.558601    26.658905 
   22800     235.0046   -333.02721       229892   -22536.276    1670.7022   -24206.978   -772.02393    150.22199    39.393611    35.556107    26.673173 
   23000    230.25003   -386.63014       229892   -22599.737    1636.9009   -24236.638   -981.65578    152.57961    39.395187    35.556871    26.655828 
   23200    234.53075   -406.02457       229892   -22539.674    1667.3335   -24207.007   -1072.1595    153.94432     39.39578     35.55792    26.650788 
   23400    233.08737   -421.37845       229892   -22535.307    1657.0722   -24192.379   -1135.4992    154.92962    39.397472    35.559904    26.642381 
   23600    240.06998   -392.01222       229892   -22476.892    1706.7132   -24183.605   -1019.2045    155.96417    39.396725    35.560894     26.63707 
   23800    240.80454   -247.82228       229892   -22480.932    1711.9353   -24192.867   -432.89855    156.42298    39.396642    35.562172    26.635891 
   24000    238.59575   -249.60433       229892   -22511.298    1696.2325   -24207.531   -419.76281    159.17913    39.396305    35.563811    26.637896 
   24200    235.12182   -253.32396       229892   -22581.931    1671.5356   -24253.466   -467.89749    159.90135    39.393853    35.567474    26.640983 
   24400    230.45182   -549.44725       229892   -22618.713    1638.3355   -24257.048   -1625.6835    159.68841    39.393469    35.567669    26.651992 
   24600    233.57559   -395.23067       229892   -22629.928     1660.543   -24290.471   -1035.4662     162.2664     39.39518    35.566165    26.672162 
   24800    230.14328   -241.64553       229892   -22600.747     1636.142   -24236.889   -421.32114    163.31194    39.393829     35.56621    26.694904 
   25000    235.09798   -325.48237       229892   -22595.864    1671.3661    -24267.23   -734.81568    163.85495    39.394644    35.567675    26.718933 
   25200    223.31077   -285.52713       229892   -22693.202    1587.5681    -24280.77    -565.6886    164.95043    39.397695    35.567401    26.737295 
   25400    229.50734   -426.01949       229892   -22600.279    1631.6209     -24231.9   -1104.1126    165.83739    39.399195    35.566862      26.7404 
   25600    242.15497    -393.6006       229892   -22466.989    1721.5359   -24188.525   -1046.7626    166.81061    39.398266    35.565836    26.734993 
   25800    242.56041   -242.95271       229892   -22492.641    1724.4182   -24217.059   -416.63301    168.69267    39.399259    35.565252    26.725493 
   26000     236.1768   -338.31523       229892     -22511.8    1679.0357   -24190.836   -765.13079    172.10965    39.398312    35.564712    26.741705 
   26200     239.3201   -247.16864       229892   -22502.417    1701.3821   -24203.799    -424.2529    172.95861    39.399563    35.562995     26.74062 
   26400    232.17959   -389.76273       229892   -22566.837    1650.6186   -24217.455   -1021.4484     173.0765    39.398697    35.563079    26.717309 
   26600    234.03057   -225.97422       229892   -22496.609    1663.7776   -24160.387   -352.53441    174.23775     39.39682    35.561361     26.70042 
   26800    240.32044   -234.04531       229892   -22524.461    1708.4938   -24232.955   -401.92869    175.22229    39.396032    35.558153    26.700818 
   27000    240.28038   -351.42078       229892   -22446.556     1708.209   -24154.765   -814.16847    174.98749    39.393866    35.559557    26.688102 
   27200    234.25792   -214.24409       229892   -22470.859    1665.3939   -24136.253   -305.76738    175.70934    39.392834    35.559961    26.679851 
   27400     238.9242   -331.14359       229892   -22428.317    1698.5676   -24126.885   -739.61769    176.39032    39.391478    35.561398     26.68963 
   27600    231.66299   -218.01567       229892   -22567.415    1646.9459   -24214.361   -347.31931    176.85044    39.391384    35.562772    26.694205 
   27800    232.73595   -384.10709       229892   -22460.112    1654.5739   -24114.686   -958.19301    177.85203    39.393005    35.563684    26.698316 
   28000    233.16586   -193.64973       229892   -22560.643    1657.6302   -24218.273   -188.66885    179.65186    39.392991     35.56065    26.710806 
   28200    238.78555   -288.12561       229892   -22497.837    1697.5819   -24195.419   -604.17467    182.32806    39.391428    35.556588    26.716425 
   28400    238.44569   -323.97066       229892   -22505.904    1695.1657    -24201.07   -732.86126    182.84675    39.391887    35.557052    26.720125 
   28600    232.51448   -334.75645       229892   -22538.225    1652.9994   -24191.224   -799.00536    184.17841    39.391469      35.5567     26.74451 
   28800    230.80581   -410.45879       229892   -22544.944     1640.852   -24185.796   -1068.8775    186.69365    39.391407    35.556897    26.739765 
   29000    230.80978   -346.08955       229892   -22493.214    1640.8803   -24134.094   -825.80703    188.96484    39.391116    35.554197    26.729424 
   29200     241.6977   -267.01431       229892   -22472.836     1718.285   -24191.121    -503.9337    190.30273    39.390686    35.552923    26.728474 
   29400    237.28442   -223.13441       229892   -22501.138      1686.91   -24188.048   -335.62684    190.61487    39.391475    35.553987    26.724799 
   29600    234.84504   -240.80914       229892   -22489.615    1669.5679   -24159.183   -423.97493    192.13034    39.390411    35.554311     26.73416 
   29800    234.83312   -312.11372       229892   -22610.664    1669.4831   -24280.147   -714.31503    194.15687     39.39123    35.551938    26.736819 
   30000    229.95011   -376.40397       229892   -22665.454    1634.7687   -24300.222   -934.96707     196.6475    39.393366    35.551931    26.721992 
   30200    235.41234   -364.43072       229892   -22566.798    1673.6009   -24240.399   -869.59887    196.63968    39.395328    35.552697    26.717114 
   30400    228.74357   -452.97868       229892   -22600.333    1626.1911   -24226.524    -1252.859    197.51138    39.395412    35.552312    26.728251 
   30600    229.59364   -448.08262       229892   -22672.097    1632.2344   -24304.331   -1194.8652    199.75634    39.396374    35.550413    26.726452 
   30800    230.73402   -491.31461       229892   -22643.321    1640.3417   -24283.662   -1406.5733    200.97464    39.395448    35.551139    26.723592 
   31000     233.2181   -163.37962       229892   -22625.191    1658.0016   -24283.192   -95.493226    199.55351    39.395512    35.549017    26.719717 
   31200    234.13616   -503.94983       229892   -22598.761    1664.5283    -24263.29    -1470.642     198.8187    39.396873    35.545505    26.713237 
   31400    233.56363   -489.17891       229892   -22560.221    1660.4581   -24220.679   -1389.9904    198.78652    39.399687    35.546253    26.728355 
   31600    227.10673   -298.28943       229892   -22554.488    1614.5544   -24169.043   -636.32139    200.61702    39.400278     35.54509    26.731752 
   31800    238.67418   -345.91509       229892   -22444.991    1696.7901   -24141.781   -824.76616    201.23088    39.399408    35.547495    26.706061 
   32000    228.45256   -344.82352       229892   -22542.915    1624.1223   -24167.038   -805.30163    202.96152    39.400792    35.548245    26.711395 
   32200    234.26416   -311.97845       229892   -22557.448    1665.4383   -24222.886   -683.58673    203.62428    39.399872    35.548821    26.710434 
   32400    230.58139   -330.56517       229892   -22548.646    1639.2566   -24187.902   -792.17566    205.50393    39.398915    35.551745    26.727008 
   32600    232.17208   -321.71859       229892   -22487.824    1650.5652   -24138.389   -701.74068    205.76453    39.400197    35.549808    26.735572 
   32800      236.835   -409.96668       229892   -22510.924    1683.7149   -24194.639   -1093.4216    206.23424     39.39915    35.547231    26.739341 
   33000    231.75386   -376.11209       229892   -22517.365     1647.592   -24164.957   -961.82205    207.37933    39.398578    35.546918    26.748804 
   33200    232.92708   -457.58044       229892   -22532.622    1655.9326   -24188.555   -1282.2461    209.02726    39.398681    35.545039    26.753008 
   33400    232.98326   -262.77253       229892   -22597.366    1656.3321   -24253.698   -527.97682    210.84701     39.39878    35.542132    26.770748 
   33600    226.71835    -436.8566       229892   -22579.211    1611.7933   -24191.004   -1147.5283    212.20494    39.399324     35.53763    26.771847 
   33800    241.49291   -415.97398       229892   -22451.771    1716.8291     -24168.6   -1113.0646     212.7857    39.400423     35.53599    26.765316 
   34000    231.90318   -300.93914       229892   -22573.598    1648.6535   -24222.252   -656.86305    213.71369    39.402182     35.53315    26.776104 
   34200    236.23434   -391.58892       229892   -22566.172    1679.4447   -24245.617   -1060.7264    214.44752    39.404786    35.534934    26.773782 
   34400    235.61395   -139.66338       229892   -22607.197    1675.0342   -24282.232   -20.448738    215.38109    39.405502    35.535229    26.764447 
   34600    244.11499   -392.40884       229892   -22435.399    1735.4701    -24170.87    -1011.064    216.69961    39.405922    35.533915    26.770414 
   34800    235.73481   -320.66229       229892   -22518.475    1675.8935   -24194.368   -714.66883    218.13754     39.40617    35.535073    26.787565 
   35000    229.52134   -393.71447       229892   -22551.508    1631.7205   -24183.228   -955.90441    219.84056    39.408367    35.534622    26.798255 
   35200    234.33878   -307.05895       229892   -22454.237    1665.9687   -24120.205   -678.59172     221.2105    39.410754    35.535417    26.813211 
   35400    239.84838   -251.58506       229892   -22465.165    1705.1378   -24170.302   -416.05848    223.61121    39.412427    35.536156    26.796912 
   35600    235.76178   -519.28779       229892   -22493.206    1676.0852   -24169.292   -1487.6872    224.27921    39.412504    35.536141    26.797671 
   35800    240.98172   -474.97938       229892    -22411.55     1713.195   -24124.745   -1320.5308    225.92992    39.412922      35.5358    26.778752 
   36000    231.54823   -388.77869       229892   -22570.051    1646.1301   -24216.182   -984.37055    225.49017    39.413811    35.536701     26.76647 
   36200    234.67616   -478.04232       229892   -22598.614    1668.3673   -24266.981    -1352.248    226.26732    39.413867    35.535947    26.760324 
   36400    238.60792   -440.90984       229892   -22544.474     1696.319   -24240.793   -1184.1924    228.27372    39.415661    35.536661    26.780754 
   36600    236.83344   -303.78704       229892   -22542.197    1683.7039   -24225.901   -652.49608    230.13565    39.415805    35.537938    26.794735 
   36800    233.17089   -247.98385       229892   -22593.563    1657.6659   -24251.229   -468.66773    229.49343     39.41398     35.53729    26.812923 
   37000    227.48078   -435.74845       229892   -22593.139    1617.2136   -24210.353   -1178.7918    230.83451    39.411401     35.53399    26.793556 
   37200    234.33407    -200.8296       229892   -22592.427    1665.9353   -24258.362   -225.04382    231.57189     39.40975     35.53251    26.799877 
   37400    232.81391   -362.73842       229892   -22595.148    1655.1281   -24250.276   -893.09132    232.28815    39.409212    35.533092    26.790906 
   37600    232.67979   -244.46275       229892   -22622.853    1654.1746   -24277.028   -430.38881    231.46435    39.409174    35.534627    26.785249 
   37800    230.19035    -259.1977       229892   -22660.477    1636.4766   -24296.953   -436.35023    232.85012    39.408746    35.536188    26.795624 
   38000    239.26735    -485.6719       229892   -22556.285    1701.0071   -24257.292   -1326.7959    233.91574    39.409678    35.535883    26.796142 
   38200    232.49112   -390.64141       229892   -22579.577    1652.8333   -24232.411   -999.89078    235.51868    39.409593    35.536622    26.792369 
   38400     242.3906   -281.91251       229892   -22499.694     1723.211   -24222.905   -531.27797    235.32704    39.408259    35.537015    26.795047 
   38600    234.34755    -163.4665       229892   -22541.886    1666.0311   -24207.917   -99.052369    236.95707    39.407956     35.53537    26.799975 
   38800    234.90615   -243.64825       229892   -22534.638    1670.0023    -24204.64   -423.24395    236.95992    39.405583     35.53592    26.811192 
   39000    233.73646    -288.0239       229892   -22477.875    1661.6867   -24139.562   -567.64047    237.80155    39.405138    35.536525    26.799263 
   39200    229.68389   -368.75308       229892    -22579.57    1632.8761   -24212.446   -891.84699     238.8614    39.405684    35.537611    26.785097 
   39400    233.69775   -296.90956       229892   -22598.348    1661.4115   -24259.759   -644.46289    240.29306     39.40465    35.538882    26.781053 
   39600    235.02683   -375.34288       229892   -22509.402    1670.8602   -24180.262   -937.32738    241.28411    39.405614    35.541848    26.780032 
   39800    232.29552   -429.00943       229892   -22589.243    1651.4427   -24240.685   -1081.2169    242.75959    39.405932    35.542113    26.781463 
   40000    233.72354   -388.50081       229892   -22559.089    1661.5949   -24220.684   -1005.8982    243.02056    39.404056    35.542739    26.782096 
   40200    229.48259   -264.64845       229892   -22568.267    1631.4449   -24199.712   -490.93126    244.00901    39.401415    35.541803    26.781178 
   40400    227.82492   -305.31721       229892   -22632.827    1619.6602   -24252.488   -702.44275    247.28158    39.400382    35.542157    26.767966 
   40600    236.30804   -505.30826       229892   -22532.692    1679.9687   -24212.661   -1483.0546    247.93714    39.402115    35.540929    26.754526 
   40800    230.93931   -439.99107       229892   -22623.338    1641.8011   -24265.139   -1173.7518    247.98166    39.400809    35.542398    26.748262 
   41000    235.95932   -380.78836       229892   -22623.977    1677.4896   -24301.467   -940.30932    247.73052    39.398269    35.544695    26.710202 
   41200    238.22825   -415.89228       229892   -22567.348    1693.6199   -24260.968   -1072.0592    248.68491    39.396237    35.547786    26.714514 
   41400    236.45158   -278.96285       229892   -22603.106    1680.9892   -24284.095   -547.36516    248.91006    39.396112    35.547892    26.705253 
   41600    234.83388   -290.44645       229892   -22565.475    1669.4885   -24234.964   -640.38565    250.05689    39.395867    35.548523    26.716926 
   41800    235.53792   -420.92864       229892   -22548.284    1674.4937   -24222.778   -1064.0302    251.54434    39.395805    35.550448     26.70473 
   42000    237.82402   -329.23974       229892    -22572.94    1690.7461   -24263.687   -731.54816     253.9757     39.39516    35.551252    26.687186 
   42200    228.43206   -449.73007       229892   -22616.722    1623.9765   -24240.699   -1164.7883    255.09696    39.396357    35.551986     26.68087 
   42400    237.04731   -345.29914       229892   -22613.578    1685.2243   -24298.803   -778.44343    254.83609    39.397064    35.555702    26.694546 
   42600    229.87568   -444.07917       229892   -22680.945    1634.2395   -24315.185   -1216.1343    254.53563    39.397866    35.555283    26.702915 
   42800    235.56066   -425.59839       229892   -22623.554    1674.6554   -24298.209   -1105.3022    253.98691    39.398039    35.554934    26.699737 
   43000    243.61164   -272.54204       229892   -22626.695    1731.8917   -24358.587   -471.45042    253.44207    39.397024    35.557029    26.705361 
   43200    235.16125    -300.0005       229892   -22628.005    1671.8158   -24299.821   -626.40913    253.08086    39.394882    35.554722    26.707192 
   43400    234.92414   -291.07071       229892   -22618.803    1670.1302   -24288.933   -541.99739     255.4588    39.394536    35.553233    26.709189 
   43600    231.94149   -490.50521       229892   -22665.088    1648.9259   -24314.014   -1341.3788    256.48623    39.395244    35.551704    26.717409 
   43800    234.76382   -188.49737       229892   -22693.645    1668.9905   -24362.636   -137.81381    257.23737    39.395294      35.5537    26.719933 
   44000    225.55412   -206.39311       229892   -22711.698    1603.5166   -24315.214   -247.89708    259.18701    39.395317    35.553867    26.727602 
   44200    235.42783   -375.89842       229892   -22626.839     1673.711    -24300.55   -909.44502    258.25325    39.395245    35.551904    26.752702 
   44400    230.23046   -354.86897       229892   -22647.733    1636.7617   -24284.494   -816.66708    260.40262    39.397225    35.551653    26.751816 
   44600     233.7313   -333.67877       229892   -22650.985      1661.65   -24312.635   -745.31582    261.47978    39.397709    35.552636    26.729171 
   44800    233.81167   -430.34345       229892    -22664.97    1662.2214   -24327.192   -1097.6208    261.90649    39.396781    35.553097     26.74874 
   45000    234.39956    -264.9592       229892   -22626.867    1666.4008   -24293.267   -497.29141    263.07338    39.397957    35.553913    26.741605 
   45200    233.82838   -344.11077       229892   -22597.685    1662.3402   -24260.025   -748.36401    262.89852    39.397963    35.552587    26.733023 
   45400    230.56342   -415.14123       229892   -22677.729    1639.1289   -24316.858   -1047.3426    264.55918    39.397136    35.552694    26.741719 
   45600     229.4491   -328.13619       229892   -22595.307    1631.2069   -24226.514   -738.53931    264.80135    39.396806    35.551143    26.739993 
   45800    232.52619   -393.47683       229892   -22614.037    1653.0826    -24267.12   -973.88721    266.44061    39.394201    35.554186     26.72465 
   46000    238.70713   -265.72344       229892   -22528.763    1697.0244   -24225.787   -489.46593     267.4636     39.39285    35.555252    26.723339 
   46200     236.7182   -331.95292       229892   -22521.307    1682.8846   -24204.191    -732.3613    270.15884    39.395177    35.554666    26.710424 
   46400    238.21172   -491.83248       229892   -22615.849    1693.5024   -24309.352   -1322.1706    271.84425     39.39458    35.552516    26.701088 
   46600    228.74509   -277.94169       229892   -22587.625    1626.2019   -24213.826   -550.12136    273.63437       39.393    35.551204    26.699473 
   46800    239.94551   -356.20468       229892   -22576.133    1705.8283   -24281.961   -826.80602    273.95876    39.390431    35.550202    26.725134 
   47000    241.77886   -301.23709       229892   -22557.847     1718.862   -24276.709   -599.05397    273.74157      39.3932    35.549055    26.744108 
   47200     233.1138   -230.58452       229892   -22663.104      1657.26   -24320.364   -330.30649    275.92659     39.39448    35.546368    26.765431 
   47400    233.51458   -381.65237       229892   -22570.644    1660.1093   -24230.753   -931.83981    276.45342    39.394844    35.542126     26.76037 
   47600     233.0547   -319.18981       229892   -22566.674    1656.8399   -24223.514   -675.17893    278.58119    39.391659      35.5434    26.741007 
   47800    231.86035   -313.09402       229892   -22591.132     1648.349   -24239.481   -706.69443    278.41267    39.388827      35.5421    26.734226 
   48000    224.78046   -406.13921       229892   -22560.025    1598.0164   -24158.042   -1003.4736    280.79482    39.388439    35.541586    26.725543 
   48200    233.59502   -367.75608       229892    -22598.63    1660.6812   -24259.311   -874.14302    280.41714    39.390015    35.541853     26.70426 
   48400    229.55471   -301.53284       229892   -22622.611    1631.9577   -24254.569   -638.83971    280.85904    39.392676    35.541167    26.690121 
   48600    229.58488   -298.33173       229892   -22670.989    1632.1722   -24303.161   -591.71273    280.86203    39.390626    35.540599    26.692498 
   48800    230.90758   -619.20784       229892     -22622.1    1641.5755   -24263.675   -1841.0774     280.9533    39.394969    35.537496    26.686644 
   49000    237.31884   -204.53421       229892   -22658.944    1687.1547   -24346.099   -204.83427    282.28205    39.396633    35.541023    26.699755 
   49200    234.67065   -311.63955       229892   -22588.642    1668.3281    -24256.97   -621.65419    284.29495    39.400522    35.540817    26.696102 
   49400    229.87307   -331.31593       229892   -22591.675     1634.221   -24225.896   -761.84286    284.46502    39.402578    35.539772    26.682221 
   49600    232.17333   -349.20253       229892   -22614.653     1650.574   -24265.227   -819.35838    284.76949    39.403492    35.539766    26.659551 
   49800    235.76515   -271.52589       229892   -22590.391    1676.1091     -24266.5     -487.226    285.52522    39.404088    35.538867    26.655896 
   50000    230.74422   -376.23101       229892   -22592.769    1640.4142   -24233.183   -946.22857     286.7373    39.403132    35.540156    26.667189 
   50200    236.61686    -399.1877       229892   -22535.649    1682.1642   -24217.813   -967.63827    287.06175     39.40296    35.538436    26.674996 
   50400    239.88218   -479.78338       229892    -22563.12     1705.378   -24268.498   -1358.3573    287.05904    39.403439    35.539262    26.685584 
   50600    240.28472   -290.34873       229892    -22464.96    1708.2398     -24173.2   -561.36815    285.85794    39.405838    35.539237    26.693586 
   50800    235.31175   -363.13386       229892   -22639.416    1672.8858   -24312.302   -852.94375    287.95877    39.408054    35.540115    26.712787 
   51000    234.97529   -324.65542       229892   -22587.873    1670.4939   -24258.366   -700.36676    287.44912    39.410458    35.538087    26.718192 
   51200    230.48457   -396.91267       229892   -22643.411    1638.5683   -24281.979   -935.97336    288.30495    39.411947    35.537481    26.732185 
   51400    235.37334   -271.77059       229892   -22596.499    1673.3237   -24269.822   -472.35365    290.75029    39.410328    35.536251    26.714668 
   51600    234.34476   -394.32926       229892   -22593.066    1666.0113   -24259.078   -955.39099    291.95987    39.413216    35.537071    26.691436 
   51800    232.87699   -350.66837       229892   -22575.972    1655.5766   -24231.548   -794.08233    291.74014    39.413068    35.536396     26.68474 
   52000    232.57143   -331.99488       229892   -22666.503    1653.4042   -24319.908   -728.43076    292.73713    39.410951      35.5361    26.660444 
   52200    233.68614    -311.9029       229892   -22641.723     1661.329   -24303.052   -695.64607    294.15395    39.410296    35.533343    26.676532 
   52400    226.63603   -480.03167       229892   -22720.745    1611.2081   -24331.953   -1279.0726    294.36013    39.409562    35.533664    26.676619 
   52600    234.78386   -480.29414       229892   -22605.972    1669.1329   -24275.104   -1312.7527    295.09432    39.410618    35.531364    26.675323 
   52800    240.51614    -325.3942       229892   -22572.675     1709.885    -24282.56   -687.86409    296.86257    39.411794    35.530506    26.678865 
   53000    237.95687   -252.34049       229892   -22526.207    1691.6906   -24217.897   -415.53572     296.4772    39.410845    35.533503    26.657679 
   53200    234.17254   -231.77194       229892   -22614.972    1664.7869   -24279.759    -319.8613    296.89137    39.411715    35.533505     26.64557 
   53400    234.06776   -232.19806       229892   -22599.431     1664.042   -24263.473   -384.55637    298.36596    39.408467    35.533941    26.633063 
   53600    230.98143   -291.24199       229892    -22691.78    1642.1006    -24333.88   -584.43593    298.44654    39.407022    35.534015     26.62912 
   53800    236.90038   -404.65999       229892   -22650.218    1684.1798   -24334.398   -1027.6416     299.8103    39.404171    35.534444     26.61716 
   54000     231.6899   -330.53055       229892   -22636.099    1647.1372   -24283.236   -716.35946    300.75753    39.402192    35.532733    26.617278 
   54200    235.81405   -446.26548       229892   -22561.093    1676.4568    -24237.55   -1215.4056    300.51456    39.402349    35.532154    26.614656 
   54400    241.88129   -322.32424       229892   -22527.354    1719.5902   -24246.944   -688.33095    302.25293    39.401704    35.531004    26.630717 
   54600    237.48282   -127.65219       229892    -22576.74    1688.3204    -24265.06    85.529645     302.4222    39.400674    35.530317     26.63138 
   54800    234.95006   -266.83004       229892   -22534.967    1670.3145   -24205.281    -520.8916    304.37656    39.398156    35.527807    26.609938 
   55000    237.68051   -485.67618       229892   -22538.655    1689.7259   -24228.381   -1388.4187    305.54655    39.394939    35.527045    26.616781 
   55200    228.85433   -470.07215       229892   -22679.624    1626.9785   -24306.603    -1296.168    304.58969    39.395547    35.527522     26.60763 
   55400    237.77209   -311.81469       229892   -22640.705     1690.377   -24331.081   -628.54809    305.60253    39.397439    35.526266    26.583507 
   55600    236.05075   -461.23588       229892   -22618.423    1678.1396   -24296.563   -1223.7894    306.38638    39.398534    35.527108    26.587207 
   55800    243.43084    -291.1146       229892   -22482.767    1730.6063   -24213.373    -565.3667    304.69436    39.400516    35.529459     26.60576 
   56000    237.08108   -460.85676       229892   -22560.137    1685.4644   -24245.601   -1258.5867     305.0107    39.401032    35.532247    26.616473 
   56200    233.19877     -370.763       229892    -22574.46    1657.8641   -24232.324   -913.39577    305.97726    39.402218    35.534289    26.629472 
   56400    235.87186   -373.28232       229892   -22654.309    1676.8678   -24331.177   -899.21042    307.53105    39.403424    35.533989    26.651698 
   56600    225.66665   -383.21417       229892   -22725.593    1604.3165   -24329.909    -955.8762    308.14777    39.403898    35.533663    26.668282 
   56800    226.64351   -404.17039       229892   -22641.998    1611.2613    -24253.26    -1005.319    309.13487    39.406054    35.535829    26.665458 
   57000    228.82319   -511.06001       229892   -22715.792    1626.7571    -24342.55   -1405.9136    311.59314    39.406245    35.533887    26.652012 
   57200    237.37227   -243.21747       229892   -22599.531    1687.5345   -24287.066   -409.52499    311.15347    39.406553    35.532162    26.655475 
   57400    238.34304   -405.44408       229892   -22644.271     1694.436   -24338.707   -1018.6487     311.8767    39.408202    35.532296    26.641042 
   57600    230.33689   -377.23553       229892   -22657.509    1637.5184   -24295.027   -891.64365    312.17864    39.407852    35.533991    26.628606 
   57800    234.60943   -461.10944       229892    -22620.93    1667.8928   -24288.823   -1241.0373    312.03654    39.408718    35.530957    26.612447 
   58000    231.90068    -179.5971       229892   -22645.828    1648.6357   -24294.464   -145.37829    312.95674    39.405396    35.531445    26.602472 
   58200     236.4381   -310.99396       229892   -22584.701    1680.8933   -24265.594   -631.51004    314.65229    39.406325    35.531011    26.591191 
   58400    235.93409   -277.17814       229892   -22608.142    1677.3102   -24285.452   -523.29853    316.31519    39.405536    35.532708     26.57456 
   58600    234.89589   -273.28977       229892   -22642.407    1669.9294   -24312.337   -518.19052    317.05506    39.404326    35.532004    26.563521 
   58800    231.69372   -330.17353       229892   -22614.602    1647.1644   -24261.766   -710.46821    316.69361    39.402814    35.529861    26.551431 
   59000    236.63396   -436.24521       229892   -22560.829    1682.2857   -24243.115   -1196.3274    317.95726    39.401311    35.529769    26.574993 
   59200    234.76904   -305.92062       229892   -22618.458    1669.0276   -24287.485   -666.26229    319.72119    39.400113    35.530703    26.573097 
   59400    229.40035    -322.0005       229892   -22623.931    1630.8603   -24254.791   -718.43857    320.96214    39.401199    35.530185    26.579069 
   59600    226.74806   -349.75793       229892   -22700.791    1612.0046   -24312.795   -787.32722    321.87471    39.402891    35.528755    26.583305 
   59800    233.42948   -461.58817       229892   -22639.177    1659.5043   -24298.681   -1238.8219    320.47674    39.400341    35.529588    26.560839 
   60000    238.19268    -258.9442       229892   -22604.343     1693.367    -24297.71   -429.84338     321.3924    39.400298     35.52714    26.565127 
   60200    231.21314   -417.80475       229892   -22631.674    1643.7479   -24275.422   -1083.9332    322.81977    39.398896    35.523451    26.555323 
   60400    237.53109   -480.12581       229892   -22573.578    1688.6636   -24262.242   -1325.8894    322.06247    39.400088    35.520586    26.525828 
   60600     234.3544   -296.68686       229892   -22562.143    1666.0798   -24228.222   -582.63431    323.73988    39.400368    35.523389    26.537355 
   60800    233.26555   -439.12361       229892    -22452.73    1658.3389   -24111.069   -1157.1391    327.28452    39.398937    35.523111    26.542842 
   61000    241.68312   -394.04542       229892   -22556.306    1718.1814   -24274.487   -939.25712    327.42615    39.399565    35.524789    26.553784 
   61200    238.87764   -348.07843       229892   -22527.966    1698.2365   -24226.202   -857.17018    328.54113     39.40178    35.525336    26.584509 
   61400    236.64694   -186.95976       229892   -22531.861     1682.378   -24214.239   -154.80735    329.48067    39.401714    35.525412    26.586046 
   61600    232.87626   -478.12074       229892   -22524.691    1655.5713   -24180.263   -1315.3614    330.41836     39.40196    35.527656    26.581253 
   61800    228.96586   -259.70699       229892   -22606.062    1627.7714   -24233.834   -477.92697    330.43619    39.400768    35.530658    26.591461 
   62000    239.33389   -364.28501       229892   -22560.492    1701.4801   -24261.972   -905.87722    329.77615    39.400268    35.530281    26.598053 
   62200    236.74424   -252.19242       229892    -22585.88    1683.0697    -24268.95   -430.91633    331.84536    39.400965    35.531217    26.593325 
   62400    239.04524   -350.80863       229892     -22611.2     1699.428   -24310.628   -827.87963    333.30393    39.400465    35.530544    26.601048 
   62600    234.64898   -254.04564       229892   -22630.803    1668.1741   -24298.977   -436.82171    333.24652    39.402064    35.532979     26.61717 
   62800    232.41539   -254.55527       229892   -22710.454    1652.2949   -24362.749   -451.11016    332.29849    39.403161     35.53383    26.642186 
   63000    234.91981   -341.11362       229892   -22606.643    1670.0994   -24276.742   -758.15767    333.90302    39.402358    35.533184    26.635891 
   63200    232.28691   -510.40313       229892   -22632.351    1651.3815   -24283.733   -1426.9815    333.46832    39.401633    35.531126    26.634955 
   63400     231.6857    -459.2517       229892   -22666.509    1647.1074   -24313.616   -1241.9167    335.20738    39.404117    35.533723    26.650978 
   63600    229.66978   -485.66086       229892    -22678.11    1632.7757   -24310.885   -1318.6344    335.77681    39.405564    35.534532     26.66677 
   63800    227.47402   -281.89146       229892   -22695.115    1617.1656    -24312.28   -522.42269    336.73038    39.406216    35.535777    26.671641 
   64000    233.03054   -262.71894       229892   -22570.972    1656.6681    -24227.64   -488.88969    337.40822    39.404569    35.535292     26.65844 
   64200    234.51612    -344.9015       229892   -22581.462    1667.2295   -24248.691   -805.21197    337.65235    39.404238    35.534027    26.661664 
   64400    228.79871   -565.00518       229892    -22631.94    1626.5831   -24258.523   -1648.9346    337.58175    39.406702    35.535088    26.653641 
   64600    236.07852   -201.71049       229892   -22639.247     1678.337   -24317.584    -191.1431    336.97812    39.408068    35.534255    26.655261 
   64800    232.12982   -515.52156       229892   -22640.786    1650.2647   -24291.051   -1473.5796    338.18672    39.407523    35.536863    26.684934 
   65000    234.72661   -458.10046       229892   -22535.952    1668.7259   -24204.678   -1264.6533     339.7103    39.407371    35.537201    26.697887 
   65200    232.96524   -289.13746       229892   -22602.155    1656.2039   -24258.359    -550.2912    339.26367     39.40707    35.536592    26.711955 
   65400    242.75227   -359.87156       229892   -22637.586    1725.7822   -24363.368   -864.86529    340.81643    39.406721    35.537693    26.695128 
   65600    236.58423   -316.79364       229892   -22570.761    1681.9322   -24252.693   -668.71901    342.82121    39.407195    35.539963    26.690539 
   65800    233.11902   -190.13535       229892   -22580.696    1657.2972   -24237.994   -209.34099    343.49435    39.407991    35.538578    26.689212 
   66000    231.62784   -355.82954       229892   -22542.181     1646.696   -24188.877   -838.18534    342.06312    39.406812    35.538043    26.700858 
   66200    228.31989   -336.95135       229892   -22597.817    1623.1791   -24220.996   -733.19135    342.70986    39.406269     35.53937    26.672427 
   66400    237.35454    -511.1012       229892   -22591.606    1687.4085   -24279.014   -1458.0892    344.45657      39.4039     35.53955    26.677161 
   66600    236.58776   -297.39904       229892   -22677.929    1681.9573   -24359.886   -592.01068    345.69332    39.402067    35.540829     26.68463 
   66800    227.61235   -373.61699       229892   -22686.892     1618.149   -24305.041   -891.97191    346.35027    39.403862      35.5431    26.667798 
   67000     227.2813   -293.99205       229892   -22757.719    1615.7955   -24373.515   -603.66322    346.69305    39.404866     35.54422    26.654792 
   67200    237.25363   -371.85188       229892   -22683.827    1686.6911   -24370.518   -871.53881    347.54269    39.404396    35.543367    26.626581 
   67400    232.37642   -442.30109       229892     -22652.7    1652.0179   -24304.718   -1198.5121    348.22425    39.404394     35.54104    26.632835 
   67600    241.67287   -583.91976       229892   -22601.839    1718.1085   -24319.948   -1770.7529    348.79061    39.402211    35.539556    26.643269 
   67800     232.6636   -344.26905       229892    -22652.56    1654.0595   -24306.619   -795.96148    349.82232    39.398707    35.537218    26.646751 
   68000    231.15485   -457.10929       229892   -22710.462    1643.3334   -24353.795   -1228.8852    350.54903    39.398633    35.536908    26.637577 
   68200    231.38934   -363.31745       229892   -22662.478    1645.0005   -24307.479   -871.76345    349.27568    39.400231    35.537633     26.63562 
   68400    228.60433   -165.45285       229892    -22608.72    1625.2012   -24233.921   -66.610848    351.04733    39.399986    35.538521    26.621248 
   68600    230.71431   -518.00268       229892   -22627.644    1640.2015   -24267.845   -1458.1202    351.44718    39.401332    35.537007     26.63222 
   68800    233.22705   -249.92749       229892    -22544.51    1658.0652   -24202.575    -424.3738    351.98715    39.402399    35.537956    26.640941 
   69000    231.86018   -322.73635       229892    -22550.01    1648.3478   -24198.358   -719.32402     353.8926     39.40057    35.536992    26.634871 
   69200    230.63989   -312.18155       229892   -22610.084    1639.6725   -24249.756   -652.47559    355.13199    39.398834    35.535731    26.620699 
   69400    232.59829   -363.65208       229892   -22613.221    1653.5952   -24266.816   -860.01348    356.54177    39.399666    35.533233    26.627197 
   69600    244.27536   -479.22363       229892   -22484.565    1736.6102   -24221.175   -1336.4307    359.04345    39.398669    35.531019       26.614 
   69800     236.6503   -326.58544       229892   -22550.001    1682.4019   -24232.403   -715.47679    359.15988    39.400252    35.531164    26.622533 
   70000    236.18641   -147.36262       229892   -22601.145     1679.104   -24280.249   -2.3485604    359.17657    39.399118    35.530091    26.597022 
   70200    242.37948   -302.94827       229892   -22506.722    1723.1319   -24229.854   -642.45663    361.03313    39.397887    35.530603    26.596723 
   70400    239.67338   -356.23129       229892   -22522.435    1703.8937   -24226.329   -871.41355    361.79295    39.399049    35.530976    26.613352 
   70600    237.11547   -313.46302       229892   -22585.178    1685.7089   -24270.887   -681.24427    362.75243    39.398939    35.531214    26.591811 
   70800    235.01271   -260.39173       229892   -22598.936    1670.7599   -24269.696   -481.82177    363.22573    39.401238    35.532293    26.584946 
   71000    233.94233   -280.20301       229892   -22622.651    1663.1503   -24285.801   -547.80636    363.93885    39.402375    35.530842    26.595851 
   71200    233.97912   -470.38433       229892   -22605.779    1663.4118   -24269.191   -1294.2914    364.82275    39.402341    35.530648    26.596859 
   71400    232.66277    -264.6423       229892   -22608.975    1654.0536   -24263.028   -479.70555    365.78349    39.403594    35.530062    26.614898 
   71600    245.19968   -326.77987       229892   -22550.531    1743.1814   -24293.712   -746.52505    366.82544    39.404119    35.531023    26.623041 
   71800    231.88416   -456.85016       229892   -22674.414    1648.5183   -24322.932    -1199.784    368.23003    39.404109    35.534343    26.591096 
   72000    234.27333   -409.07326       229892   -22649.183    1665.5034   -24314.686    -1031.625     368.6735    39.403828    35.533155    26.583311 
   72200    239.80106   -363.10679       229892   -22480.018    1704.8014   -24184.819   -869.39363    367.87283    39.404118    35.532205    26.590195 
   72400    235.54197   -311.86235       229892   -22534.527    1674.5225   -24209.049   -682.42879    369.10077    39.404091    35.532981    26.596803 
   72600    234.06467   -280.95954       229892   -22507.531      1664.02   -24171.551   -614.25228    368.59244    39.403911    35.532414    26.591305 
   72800    238.90041   -340.14074       229892   -22531.048    1698.3984   -24229.446    -752.9603    368.66049    39.404627    35.531487    26.600475 
   73000    233.97261   -371.47363       229892   -22568.634    1663.3656       -24232   -893.22877    369.91201     39.40568    35.530317    26.585275 
   73200    231.72012   -280.65668       229892   -22510.287    1647.3521   -24157.639   -510.53822    370.44227    39.402408    35.527978    26.604118 
   73400    238.42025   -463.80058       229892   -22492.643    1694.9848   -24187.627   -1275.7642    371.51441    39.399464    35.527425    26.615829 
   73600    233.54921   -344.32978       229892   -22573.734    1660.3555   -24234.089   -810.87727    372.95783    39.399965    35.528697    26.625152 
   73800     230.7205   -178.16583       229892   -22647.862    1640.2455   -24288.107   -110.31155    374.05793    39.402062    35.526815    26.631265 
   74000    234.13882   -487.54269       229892   -22643.853    1664.5472     -24308.4   -1354.1631    375.22562    39.402801    35.525269    26.632994 
   74200    241.56419   -453.65515       229892   -22554.651    1717.3359   -24271.987    -1258.183    374.78266    39.404507    35.524063     26.64702 
   74400    237.72909   -311.69436       229892   -22543.983    1690.0712   -24234.054   -660.36695    375.67589    39.405417    35.523277    26.648684 
   74600    239.70966   -428.98504       229892   -22575.461    1704.1516   -24279.613   -1129.3258    375.77984    39.407796    35.523272    26.655046 
   74800    237.56107   -285.02404       229892   -22624.661    1688.8768   -24313.537   -573.51383    378.26567    39.405631    35.521929    26.672744 
   75000    235.21201    -418.3879       229892   -22615.935    1672.1767   -24288.112    -1080.157    377.04338    39.405245    35.519402    26.680633 
   75200    237.26519   -463.64029       229892   -22513.368    1686.7733   -24200.141   -1279.4245     378.4255    39.405574    35.517467    26.690331 
   75400    229.35405   -408.36157       229892   -22600.025    1630.5311   -24230.557   -1084.3894    380.67946    39.407475    35.518599    26.704685 
   75600    234.29413   -313.18676       229892   -22544.402    1665.6513   -24210.053   -658.63274    380.38352    39.407524    35.520505    26.716931 
   75800    231.55932   -306.55684       229892   -22509.828    1646.2089   -24156.037   -642.88527    382.77067    39.408631    35.521295    26.703789 
   76000    240.42985     -362.065       229892   -22484.038    1709.2716   -24193.309   -801.61322    385.48786    39.408238    35.519695    26.700761 
   76200    232.89758   -304.79829       229892   -22610.525    1655.7229   -24266.248   -669.82929    383.31544    39.411044    35.519995    26.704041 
   76400     237.4361   -317.53946       229892   -22589.546    1687.9883   -24277.535   -685.46822     383.0085    39.412043    35.519406    26.704831 
   76600    229.74653   -259.27202       229892   -22534.652    1633.3213   -24167.974   -456.52937    383.34254    39.412314    35.520967     26.69748 
   76800    234.49339   -261.39605       229892   -22518.163    1667.0679   -24185.231   -463.53595    384.19646    39.413747    35.522342     26.68563 
   77000    232.64825   -216.32201       229892   -22532.838    1653.9504   -24186.789    -313.4725    383.21913    39.414201    35.521821     26.67665 
   77200    233.87377   -411.53492       229892   -22491.579    1662.6629   -24154.242   -1033.4666    384.47357    39.412832    35.522585    26.666138 
   77400     234.6581   -463.91747       229892   -22497.736    1668.2388   -24165.975   -1269.0242    386.11457    39.411886      35.5219    26.665962 
   77600    227.39564   -536.15724       229892   -22511.397    1616.6083   -24128.005   -1570.0645    387.26674    39.411997    35.524765    26.644841 
   77800     232.2826   -376.40936       229892   -22545.088    1651.3509   -24196.438   -942.98748    390.11373    39.411693    35.526128    26.650246 
   78000    236.12666   -292.07157       229892   -22545.066    1678.6792   -24223.746    -597.9073    391.30945    39.411534    35.528372    26.666722 
   78200    231.02831   -443.29015       229892   -22547.579    1642.4339   -24190.013   -1189.2887    391.51297    39.411164    35.527188    26.650763 
   78400    241.02667   -385.07321       229892   -22492.631    1713.5145   -24206.146   -958.61641    392.36527    39.411689    35.526439    26.641697 
   78600     233.9544   -318.45374       229892   -22534.068    1663.2361   -24197.304   -712.33042    393.12408    39.412598    35.527145    26.631588 
   78800    230.36656   -387.27024       229892   -22523.725    1637.7293   -24161.454   -984.92262    391.73841    39.414389    35.528419    26.630927 
   79000    237.91917   -319.68951       229892   -22522.435    1691.4226   -24213.858   -706.20182    393.88287    39.413543    35.529804    26.623871 
   79200     243.0502   -203.92321       229892   -22475.933    1727.9003   -24203.834   -226.34904    392.51089    39.413262    35.531879    26.620126 
   79400    240.25207   -194.17907       229892   -22469.978    1708.0077   -24177.985   -209.84757    393.36823    39.414894    35.531653     26.62527 
   79600    234.38747   -405.11578       229892    -22562.27    1666.3149   -24228.585   -1048.0619    395.20469    39.415569    35.530111    26.633586 
   79800    238.86889   -419.99373       229892   -22565.435    1698.1744   -24263.609   -1096.5909    397.31401    39.417825    35.531528    26.627966 
   80000    232.89947    -419.6161       229892    -22602.17    1655.7364   -24257.906   -1148.5823    398.29587    39.419091    35.531908    26.599098 
   80200    225.77305   -271.40497       229892   -22629.911     1605.073   -24234.984   -525.59265     397.9835    39.417821    35.533064    26.616363 
   80400    236.50542   -136.04428       229892    -22631.49    1681.3719   -24312.862     48.65673    396.99087    39.416862    35.532686    26.641787 
   80600    233.40721   -318.87158       229892   -22598.828     1659.346   -24258.174   -705.95224    400.45895    39.417878    35.532582     26.64723 
   80800      234.384   -292.00042       229892   -22549.058    1666.2903   -24215.349   -567.89962    400.52244     39.41869    35.531637    26.643162 
   81000    232.55564   -338.72437       229892   -22574.219     1653.292   -24227.511   -751.88774    404.78426    39.417044    35.531127    26.665253 
   81200    233.31653   -352.81307       229892   -22541.521    1658.7014   -24200.222   -845.42469    405.42977    39.417666    35.529407     26.68246 
   81400    234.40648   -299.56014       229892   -22496.779      1666.45   -24163.229   -611.49425    405.77722    39.419337    35.526472    26.685833 
   81600    232.30057   -439.38367       229892   -22563.763    1651.4786   -24215.242   -1180.3319    406.25898     39.41884    35.526796     26.70416 
   81800    229.40916    -367.2118       229892    -22639.84    1630.9229   -24270.763   -901.30078    406.74967    39.421117    35.527492    26.709021 
   82000    238.41074   -226.25018       229892   -22579.845    1694.9172   -24274.763   -337.78925    407.11945    39.421873    35.527535    26.716222 
   82200    242.48742   -359.81001       229892   -22551.093    1723.8993   -24274.993   -874.40633    409.77526    39.419867    35.527185    26.709347 
   82400    232.14042   -412.53713       229892   -22581.527    1650.3401   -24231.867   -1110.0378    410.09473    39.418742    35.526437    26.720079 
   82600    245.92064   -393.99639       229892   -22512.752    1748.3069   -24261.059   -1002.3812     411.3784    39.417187    35.526575    26.711652 
   82800    233.41277   -281.20126       229892   -22625.631    1659.3855   -24285.016   -527.31702    411.94857    39.417714    35.527655    26.705365 
   83000    243.62551   -374.00679       229892   -22527.555    1731.9902   -24259.546   -889.50241     413.2487    39.419008    35.527939    26.704877 
   83200    231.51154   -290.67632       229892   -22548.278    1645.8692   -24194.147   -571.24698    413.53792    39.418611    35.526404    26.711069 
   83400    236.28198   -460.43604       229892   -22552.984    1679.7834   -24232.767   -1236.6951    415.80674    39.420079    35.524979    26.733763 
   83600    228.93157   -342.62327       229892   -22682.979    1627.5277   -24310.507   -764.02914     414.0046    39.419375    35.522754    26.748252 
   83800    232.78781   -273.42346       229892   -22589.199    1654.9425   -24244.142   -521.31969    415.24154    39.419457    35.521438    26.740613 
   84000     238.9535   -243.46313       229892   -22580.257    1698.7759   -24279.033   -390.13306    414.49817    39.418245    35.521093    26.739804 
   84200    239.97639   -357.51944       229892   -22549.726    1706.0478   -24255.773      -852.99    413.92388     39.41874    35.523395    26.750758 
   84400    234.07701    -551.1985       229892   -22597.246    1664.1077   -24261.354   -1604.2866    415.97764    39.418451    35.522581    26.741059 
   84600    238.93483   -454.17129       229892   -22537.113    1698.6431   -24235.757   -1196.6292    416.05617    39.420296    35.521376    26.730527 
   84800    236.70926   -281.06635       229892   -22622.757    1682.8211   -24305.578   -527.60499    416.90869    39.420662    35.521939    26.729025 
   85000    231.54347   -378.75236       229892    -22575.65    1646.0962   -24221.746   -923.81663    415.64314    39.420453     35.52208    26.727815 
   85200    230.52058   -308.71886       229892   -22551.795    1638.8242   -24190.619   -667.57348    416.84365    39.421801    35.521997    26.719701 
   85400    232.77904   -326.17418       229892   -22617.349    1654.8802   -24272.229   -735.72718    416.82953    39.421173    35.524428    26.696941 
   85600    235.01676   -273.89996       229892   -22604.368    1670.7886   -24275.157   -513.55925     418.6287    39.423331    35.526532    26.706133 
   85800     230.8015   -317.26469       229892   -22615.372    1640.8214   -24256.194   -699.36971    418.14397    39.423632     35.52861    26.709256 
   86000    231.21445   -474.08566       229892   -22566.234    1643.7572   -24209.991   -1351.9978    419.77196    39.422958    35.528408     26.69269 
   86200    234.61491   -568.26741       229892   -22537.962    1667.9318   -24205.893     -1712.74    420.51967    39.422774     35.52792     26.67497 
   86400    235.61268   -354.29757       229892   -22581.829    1675.0252   -24256.854   -836.26963    422.48901    39.425563     35.52699    26.657623 
   86600    241.60278   -281.67715       229892   -22536.528    1717.6102   -24254.138   -521.19691    423.69936     39.42718    35.525462    26.641873 
   86800    231.30493    -291.3551       229892   -22606.019    1644.4004   -24250.419   -572.91587    425.49277     39.42896    35.525664    26.628584 
   87000    234.71412   -271.58994       229892   -22577.325    1668.6372   -24245.962     -493.592    426.06552    39.430705     35.52558    26.607914 
   87200    237.50328    -399.8049       229892   -22532.746    1688.4659   -24221.212   -1010.9525    427.46243    39.429373     35.52638    26.605505 
   87400    234.20949    -432.2905       229892   -22618.146    1665.0496   -24283.195   -1174.9829    428.50006    39.429812     35.52453    26.596536 
   87600    233.40017   -364.88123       229892   -22533.309     1659.296   -24192.605   -871.33912    427.94957    39.430036    35.524191    26.591277 
   87800    233.26067   -349.39643       229892   -22594.036    1658.3042    -24252.34   -827.90768    428.66769    39.428451    35.523322    26.612491 
   88000     234.6808    -263.6526       229892   -22575.547    1668.4003   -24243.948   -475.50127     429.0925    39.427747    35.523894    26.611597 
   88200     233.7858    -298.9828       229892   -22580.292    1662.0375   -24242.329   -621.46254    431.20768    39.429068    35.522674    26.606996 
   88400    236.23463   -398.73537       229892   -22512.678    1679.4468   -24192.125    -1020.372    432.07051    39.428047    35.521964    26.609579 
   88600    232.55767   -395.31742       229892    -22542.66    1653.3065   -24195.967   -992.31556    432.67149    39.428624    35.520897    26.609634 
   88800    231.62972   -498.03169       229892   -22591.118    1646.7094   -24237.827    -1425.863    435.03106    39.428225    35.522075    26.624539 
   89000    233.67499   -358.21759       229892   -22578.105    1661.2497   -24239.355   -827.98255    435.73169    39.429259    35.520311    26.629149 
   89200    234.72237   -254.53495       229892   -22606.043    1668.6958   -24274.738   -392.55096    436.07392    39.428949    35.521124    26.622849 
   89400    240.18502    -340.6654       229892   -22583.913     1707.531   -24291.444   -772.26103    436.63869    39.428746    35.520749    26.633501 
   89600    226.71745   -417.87947       229892    -22720.97    1611.7869   -24332.757   -1159.9547    438.75794    39.430308    35.522211    26.617039 
   89800    241.45191   -339.79255       229892    -22629.25    1716.5377   -24345.788   -787.16259    438.57853     39.43109    35.523851    26.605416 
   90000    230.03815   -356.18871       229892   -22627.814    1635.3945   -24263.209   -855.76396    440.09128    39.430409    35.522868    26.613578 
   90200    234.44754   -151.91546       229892    -22642.27    1666.7419   -24309.012   -59.161567    439.93673    39.429523    35.521042    26.617472 
   90400    236.26522   -231.52194       229892   -22569.914    1679.6642   -24249.579   -380.65143    442.68305    39.428063    35.519683    26.623306 
   90600     232.4375   -511.28719       229892   -22565.568    1652.4521    -24218.02   -1465.6298    444.49498    39.428959    35.517029    26.627745 
   90800    238.96262   -305.83779       229892   -22600.859    1698.8407   -24299.699    -671.5987    444.61236    39.430849    35.518674    26.627785 
   91000    237.78619   -338.75252       229892   -22655.368    1690.4772   -24345.846   -772.05413    444.88816    39.432811    35.517394    26.621212 
   91200    231.95811   -564.70228       229892   -22709.777     1649.044   -24358.821   -1701.6989    447.79651    39.436077    35.515911     26.62943 
   91400    235.20452    -462.2652       229892   -22648.083    1672.1235   -24320.206   -1307.8721    448.78265    39.437716    35.514328    26.619748 
   91600    237.56883   -437.51768       229892   -22534.564    1688.9319   -24223.496   -1225.4602    448.56022    39.438151    35.514008    26.610008 
   91800    234.85317    -261.5863       229892    -22563.89    1669.6257   -24233.516   -503.41863    448.75632    39.438935    35.514472    26.608398 
   92000    231.55488   -307.03379       229892    -22548.13    1646.1773   -24194.308   -706.90814    448.57677    39.437458    35.515386    26.608898 
   92200    228.48994   -368.47909       229892   -22575.424     1624.388   -24199.812   -933.31636    448.26373    39.439551    35.516645    26.598059 
   92400    237.74162   -180.09967       229892   -22571.987    1690.1603   -24262.148   -185.03951    447.34021    39.440113    35.519869    26.616528 
   92600    240.19604   -421.23827       229892   -22520.163    1707.6094   -24227.772   -1121.6192    449.62582    39.437555    35.520421    26.603711 
   92800    226.39362   -409.67085       229892   -22627.342    1609.4848   -24236.827   -1099.3188    450.54996    39.436438    35.520801    26.626304 
   93000    228.97643   -248.75868       229892   -22642.977    1627.8465   -24270.823   -452.26686    452.50275    39.436332    35.521598    26.643825 
   93200    236.71378   -270.31098       229892   -22615.562    1682.8532   -24298.415   -520.52183    453.81448    39.435545    35.521959    26.666351 
   93400    225.88505   -415.11336       229892   -22674.907    1605.8692   -24280.776    -1104.668     453.9252    39.434715    35.523064    26.654502 
   93600    234.40049   -335.20409       229892   -22634.093    1666.4075     -24300.5   -773.25617    454.91177    39.433658    35.523198    26.633438 
   93800    230.83837   -392.55773       229892   -22670.962    1641.0835   -24312.046    -989.5793    457.83273    39.432429    35.523462    26.671672 
   94000    232.53206   -375.72419       229892     -22660.2    1653.1243   -24313.324    -898.6636    458.80437    39.433014    35.522932    26.691194 
   94200    236.42098   -501.34828       229892   -22554.785    1680.7716   -24235.557   -1436.3619    459.04746    39.431963    35.523546    26.697983 
   94400    236.58341   -366.31408       229892   -22615.271    1681.9263   -24297.198   -899.87883    458.75612    39.430913    35.522438    26.690454 
   94600    231.48912   -199.53643       229892    -22606.84    1645.7099    -24252.55   -257.23021    458.72319    39.429984    35.521284    26.693256 
   94800    237.21275   -326.84095       229892   -22601.125    1686.4005   -24287.525   -735.83532    458.79933    39.429099    35.520525    26.694667 
   95000    236.14332   -250.39084       229892    -22659.07    1678.7976   -24337.868    -416.1743     458.6622    39.430056    35.520279    26.696457 
   95200    230.68959    -474.7153       229892   -22647.808    1640.0258   -24287.834   -1349.5804    459.00637    39.429066    35.520535    26.679533 
   95400    231.73349   -269.31118       229892   -22589.804    1647.4471   -24237.251   -495.31325    460.27655    39.428284    35.517312    26.672747 
   95600    234.91951   -115.80176       229892   -22580.476    1670.0973   -24250.573    118.72532    460.06132    39.426772    35.516807    26.675428 
   95800    229.77557   -130.14418       229892    -22573.64    1633.5279   -24207.168    32.793227    460.09151    39.426737    35.517602    26.677025 
   96000     234.0618   -300.19572       229892   -22539.226    1663.9997   -24203.226   -657.17177    461.53738    39.428802    35.517781    26.684901 
   96200    237.95413   -483.87693       229892   -22492.831    1691.6711   -24184.502   -1369.5545    463.55053    39.430594    35.519807    26.710815 
   96400    230.80807   -371.55482       229892   -22615.019    1640.8681   -24255.887   -938.88464    463.71265    39.432257    35.520866     26.71092 
   96600    231.16722   -437.31314       229892   -22617.785    1643.4214   -24261.206    -1198.096    463.84107    39.432044    35.522031    26.697985 
   96800    231.62281   -580.30539       229892   -22558.769    1646.6603    -24205.43   -1739.5884    464.86997     39.43303    35.519653     26.70016 
   97000    232.72888   -393.86976       229892   -22573.436    1654.5236    -24227.96   -1011.8422    466.33326    39.432208     35.51848    26.700409 
   97200    232.80516   -185.73278       229892   -22570.343    1655.0659   -24225.409   -196.35057    467.82254    39.431889    35.518645    26.696545 
   97400    233.65486   -207.86109       229892   -22537.262    1661.1066   -24198.369   -274.15077    467.72975      39.4313     35.51892    26.687115 
   97600    238.51006   -394.71585       229892   -22504.686    1695.6234   -24200.309   -1055.9341    468.84797    39.429096    35.519221     26.67876 
   97800    236.65336   -274.77035       229892   -22496.738    1682.4236   -24179.161   -520.72361    468.14613     39.42887    35.517269    26.680642 
   98000    240.41825   -182.04483       229892    -22569.51    1709.1891   -24278.699   -190.78223    470.03624    39.429769    35.520008    26.700161 
   98200    234.87532   -391.27999       229892   -22604.407    1669.7832    -24274.19   -990.84828    471.32559     39.43022    35.519918    26.696727 
   98400    236.61532   -551.07723       229892   -22531.961    1682.1532   -24214.114   -1614.5955    471.80317    39.429756    35.519452    26.687578 
   98600    236.39143   -390.07097       229892   -22548.465    1680.5615   -24229.027   -1024.6867    471.53049    39.428368    35.522184    26.670731 
   98800    234.55707    -589.6061       229892   -22519.798    1667.5206   -24187.318   -1773.6759    472.71888    39.429716    35.521804    26.688615 
   99000    229.84473   -326.08432       229892   -22535.948    1634.0195   -24169.967   -722.90859    473.27104    39.430083    35.523887    26.680199 
   99200    228.42938   -429.90067       229892   -22486.212    1623.9574    -24110.17   -1154.6292    475.16002    39.431953     35.52102    26.673282 
   99400     231.7134   -338.56175       229892   -22499.526    1647.3043    -24146.83   -731.10985    476.45478    39.431929    35.520845    26.675563 
   99600    233.69256   -307.09548       229892   -22470.658    1661.3746   -24132.033   -657.61405    475.40557    39.432241     35.52022    26.680374 
   99800    238.82161   -293.20777       229892   -22501.059    1697.8383   -24198.898   -569.09294    477.48943     39.43109    35.521838    26.668621 
  100000     232.7056   -310.11826       229892   -22566.181    1654.3581   -24220.539    -674.0033    477.76321    39.431829    35.522985    26.681431 
  100200    234.49096   -478.35701       229892   -22583.586    1667.0506   -24250.636   -1404.4835    479.23551    39.431124    35.522085    26.669917 
  100400    242.97504   -230.36282       229892   -22501.619    1727.3659   -24228.985   -352.52391    479.39969     39.43269    35.522682    26.666536 
  100600    238.69399   -281.30538       229892   -22520.944     1696.931   -24217.875   -686.55682    481.86504    39.432184    35.526105    26.654986 
  100800    234.29424   -331.55366       229892    -22595.58    1665.6521   -24261.232   -742.08862    480.62204    39.430909    35.527037    26.661909 
[...]
 3975800    223.52387   -454.75246       229892   -24613.988     1589.083   -26203.071   -1258.1245    5813.1427    39.679062    33.780564    27.006634 
 3976000    225.98229   -418.30095       229892   -24667.394    1606.5605   -26273.955   -1120.0547    5811.6156    39.679694    33.780689    27.018166 
 3976200    224.21115   -482.21495       229892   -24675.282     1593.969   -26269.251   -1360.0897    5812.7833    39.679846    33.778333    27.013348 
 3976400    218.94907    -459.8377       229892     -24703.8    1556.5597    -26260.36    -1279.213    5812.1714    39.680869    33.777949    27.026479 
 3976600    217.39872   -533.27777       229892   -24699.158    1545.5379   -26244.696   -1534.4822     5812.645    39.678905    33.776975    27.037823 
 3976800    228.85175   -432.75151       229892   -24637.654    1626.9602   -26264.615   -1185.2865    5810.0713    39.679358    33.777403    27.042501 
 3977000    218.45435   -398.10815       229892   -24739.234    1553.0426   -26292.276   -983.68156    5813.3331    39.679481    33.776599    27.048875 
 3977200      229.681    -432.9941       229892    -24637.75    1632.8555   -26270.605   -1130.6174     5811.228    39.681389    33.774128     27.04216 
 3977400    225.92831      -448.27       229892    -24660.45    1606.1768   -26266.627    -1223.808    5812.6661     39.68294    33.775588    27.030215 
 3977600    222.75152   -453.10933       229892   -24682.292    1583.5922   -26265.885   -1237.6238    5813.4504    39.683767      33.7753      27.0396 
 3977800    223.06985   -519.04183       229892   -24651.556    1585.8553   -26237.412   -1476.6652    5814.0543    39.683976    33.773993    27.025219 
 3978000    219.19804   -478.63088       229892   -24706.188    1558.3297   -26264.518   -1340.2542    5811.8834    39.684746    33.774181    27.014223 
 3978200    221.33632   -408.95992       229892   -24640.583    1573.5313   -26214.115   -1067.7444      5812.77     39.68585    33.774108    27.023621 
 3978400    221.92564   -510.95384       229892   -24687.406    1577.7208   -26265.127   -1443.1173    5811.7159    39.683912    33.774253    27.030942 
 3978600    222.62009   -425.90569       229892   -24670.039    1582.6579   -26252.697    -1145.174    5812.7273    39.685096    33.775494    27.030974 
 3978800    226.04473   -413.23088       229892   -24630.362    1607.0045   -26237.366   -1107.8122    5811.4081    39.683371    33.775452    27.029543 
 3979000    225.14213   -473.34779       229892    -24651.76    1600.5877   -26252.348   -1300.8786     5813.644    39.682164    33.773643    27.027113 
 3979200    221.61354   -498.11141       229892   -24692.572    1575.5021   -26268.074   -1399.2016    5812.0199    39.682267    33.773361     27.02319 
 3979400    220.13864   -369.65337       229892   -24664.601    1565.0167   -26229.618   -895.59239    5812.2335    39.682617    33.772951    27.025119 
 3979600     223.7958   -556.05011       229892   -24659.964    1591.0163   -26250.981   -1625.6527    5813.2695    39.684327    33.772648    27.019959 
 3979800     225.2895    -504.1775       229892   -24653.396    1601.6353   -26255.031   -1424.7426     5812.339    39.683645     33.77271    27.031778 
 3980000    224.15335   -416.67134       229892   -24655.288    1593.5581   -26248.846   -1088.1711    5811.6713     39.68377    33.772417    27.035679 
 3980200    227.16995   -413.45625       229892   -24642.375    1615.0039   -26257.379   -1051.5185    5814.0205    39.684968    33.773376    27.055097 
 3980400    227.43331   -525.79376       229892   -24645.419    1616.8762   -26262.295    -1512.175    5812.5901    39.685418    33.772566    27.057582 
 3980600    223.13911   -473.77939       229892   -24591.934    1586.3477   -26178.282   -1307.2303    5812.4099    39.685182    33.771192    27.056536 
 3980800     223.2098   -485.09576       229892   -24591.749    1586.8503   -26178.599   -1357.2755    5812.9225     39.68561    33.768784    27.053045 
 3981000    228.87928   -466.31355       229892   -24618.187    1627.1559   -26245.343   -1290.8601    5812.4478    39.686833    33.766864    27.043471 
 3981200    227.37333   -550.20399       229892   -24600.379    1616.4498   -26216.829   -1602.3705    5814.6133    39.686153    33.764682    27.053561 
 3981400    225.87852   -452.06951       229892   -24596.894    1605.8228   -26202.716   -1261.8851    5814.1099    39.686221    33.765949    27.050862 
 3981600    219.37387   -511.94436       229892   -24644.523    1559.5797   -26204.102   -1504.8221     5813.638    39.687263    33.763669    27.038927 
 3981800    227.18529   -486.20948       229892   -24623.485    1615.1129   -26238.598    -1389.063    5813.8331    39.688635    33.763128    27.042027 
 3982000     219.3862   -414.47882       229892    -24661.03    1559.6674   -26220.698   -1081.8819    5813.1219    39.687826    33.764209    27.053249 
 3982200    219.79995   -587.76343       229892   -24674.297    1562.6088   -26236.906   -1738.4562    5814.9155     39.68641    33.763192    27.060514 
 3982400    228.54722   -454.04959       229892    -24605.47    1624.7952   -26230.265   -1224.8344    5813.1165    39.685721    33.763419    27.057288 
 3982600    224.26161   -411.55106       229892   -24619.092    1594.3278    -26213.42   -1090.7571    5813.5551    39.684304    33.763658    27.070267 
 3982800    226.72892   -524.26359       229892   -24573.439    1611.8685   -26185.307   -1499.7575    5814.5193    39.682823    33.764241    27.076469 
 3983000    225.46966   -564.09162       229892   -24559.319    1602.9161   -26162.235   -1662.0468    5813.3443     39.68193    33.764481    27.073166 
 3983200    224.79232    -473.8757       229892   -24594.916    1598.1008   -26193.016   -1320.3252    5812.9288    39.682208    33.764343    27.074039 
 3983400    227.16337   -411.58246       229892   -24564.747    1614.9571   -26179.705   -1072.6624    5812.3325     39.68006    33.764879    27.083445 
 3983600    223.24762   -520.40704       229892   -24607.991    1587.1191    -26195.11   -1527.5098    5813.3835    39.678571    33.763698    27.080945 
 3983800    223.24864   -487.86897       229892   -24600.911    1587.1264   -26188.038   -1357.8786     5812.454    39.679223    33.763646    27.075944 
 3984000    223.59797   -446.72328       229892   -24634.917    1589.6098   -26224.527   -1232.5152    5814.0258    39.677187    33.762551    27.076473 
 3984200    224.54744   -338.78179       229892   -24613.104    1596.3598   -26209.464   -788.04331    5814.0863    39.676382    33.762598    27.071287 
 3984400    226.95064   -516.47935       229892   -24650.031    1613.4447   -26263.476   -1489.5069    5814.0669    39.675255    33.760947    27.075716 
 3984600     230.1498   -445.98372       229892   -24644.374    1636.1883   -26280.562    -1184.889    5813.0958    39.674766      33.7596    27.083207 
 3984800    226.48619   -459.92626       229892   -24632.059    1610.1429   -26242.202   -1328.6006    5812.6373    39.674001    33.758857    27.077344 
 3985000    224.89542   -446.94033       229892   -24651.873    1598.8337   -26250.706   -1224.5152    5812.3577    39.673362    33.758839    27.075647 
 3985200     225.7031   -418.95389       229892       -24618    1604.5757   -26222.576   -1096.1448    5813.6586    39.672305    33.759261    27.075913 
 3985400    225.27844   -539.61306       229892   -24624.931    1601.5567   -26226.487   -1569.5962    5815.3432    39.671353    33.759919    27.059574 
 3985600    221.46226   -371.77643       229892    -24599.15    1574.4266   -26173.577   -918.97978    5813.0159    39.672775    33.758251    27.053745 
 3985800    222.85849   -357.16013       229892   -24633.861    1584.3527   -26218.214   -854.18137    5812.8549     39.67116    33.759772    27.060826 
 3986000    232.00236   -577.41369       229892   -24528.915    1649.3586   -26178.273   -1680.8174    5814.7492    39.670392    33.757278    27.063219 
 3986200    239.23602   -404.65617       229892   -24565.302    1700.7844   -26266.086   -1066.0402    5813.2307    39.669146    33.755772    27.071966 
 3986400      224.589   -290.85943       229892   -24685.272    1596.6553   -26281.927   -575.90837    5813.3004    39.669601    33.753055    27.079899 
 3986600    223.41774    -406.0056       229892   -24660.588    1588.3286   -26248.917   -1025.8028    5812.9271    39.669544    33.751364    27.072229 
 3986800    227.78935    -517.6626       229892   -24644.726    1619.4074   -26264.133    -1477.437    5814.3013    39.668438    33.750221     27.06719 
 3987000    229.27978   -389.76369       229892   -24627.177    1630.0031    -26257.18    -1022.512    5812.4819    39.666644    33.748299     27.06131 
 3987200    219.55197   -489.56108       229892   -24728.587    1560.8459   -26289.433   -1348.6198    5813.6611    39.666563    33.748975    27.058722 
 3987400    226.09101   -498.77827       229892   -24656.115    1607.3334   -26263.448   -1418.1826    5814.1591    39.667068    33.749004    27.058938 
 3987600    228.82509   -420.92507       229892   -24605.647    1626.7706   -26232.418   -1125.7924    5812.7762     39.66807    33.748673    27.043628 
 3987800    220.84577   -492.47177       229892   -24640.439    1570.0438   -26210.483   -1369.3665    5813.9099    39.668896     33.74875    27.053399 
 3988000    226.22903   -629.49133       229892   -24612.053    1608.3147   -26220.368   -1924.4139      5815.65    39.667057    33.748482    27.045008 
 3988200    225.41034   -481.30428       229892   -24621.914    1602.4944   -26224.409    -1352.015    5813.5234    39.665472    33.747436    27.050981 
 3988400    223.92503   -472.20691       229892   -24628.606     1591.935   -26220.541   -1342.3368    5814.1756    39.663574    33.747555    27.054643 
 3988600    217.67805   -508.73462       229892   -24665.545    1547.5238   -26213.069   -1441.0394    5813.8193    39.661582    33.747013    27.068511 
 3988800    220.94583   -481.29493       229892   -24639.149    1570.7552   -26209.904    -1323.017     5813.293    39.661121    33.745811    27.073777 
 3989000    231.13073   -409.02842       229892   -24580.078    1643.1619    -26223.24   -1052.6446    5813.9032    39.660533     33.74348     27.06256 
 3989200     221.2937   -408.48273       229892     -24635.2    1573.2283   -26208.428   -1045.4818    5813.7501    39.660902    33.742741    27.064576 
 3989400     225.0976   -477.85151       229892   -24649.899     1600.271    -26250.17   -1364.3947     5815.051    39.660284     33.74331    27.080331 
 3989600    227.75192   -372.20983       229892   -24563.882    1619.1412   -26183.023   -904.68245    5812.5728    39.659453    33.744694    27.087464 
 3989800    223.87821   -508.59967       229892   -24612.592    1591.6021   -26204.194   -1459.5071    5812.8463    39.659328    33.744316    27.073214 
 3990000     230.9181   -492.99429       229892   -24643.855    1641.6503   -26285.505   -1342.2836    5812.9397    39.658796    33.744398    27.066434 
 3990200    225.23181   -397.06329       229892   -24671.059    1601.2252   -26272.284   -1036.0012     5811.887    39.659189    33.742007    27.046638 
 3990400    225.51047   -431.99608       229892   -24612.764    1603.2062    -26215.97    -1144.067    5811.7634    39.657913    33.741637    27.055022 
 3990600    219.94762   -536.15537       229892   -24648.482    1563.6587   -26212.141   -1551.1595    5814.7125    39.656423    33.740255    27.042981 
 3990800    225.99626   -520.91954       229892   -24593.324    1606.6599   -26199.984   -1464.1307    5812.7743     39.65643     33.73882    27.033079 
 3991000    226.63022   -532.81332       229892   -24596.247    1611.1668   -26207.413   -1534.4335    5813.7993    39.656291    33.736692    27.027391 
 3991200      228.893   -413.13907       229892   -24572.096    1627.2534   -26199.349   -1099.5273    5812.7675    39.654479    33.737162    27.020331 
 3991400    235.07154   -511.66767       229892   -24555.589    1671.1781   -26226.767   -1440.9291    5813.7236    39.654672    33.736846    27.030723 
 3991600    223.42034   -475.05198       229892   -24611.526     1588.347   -26199.873   -1378.8449    5814.1208    39.654801    33.736456    27.040944 
 3991800    218.49415   -361.56638       229892   -24688.271    1553.3256   -26241.596   -867.15958    5813.3545    39.654531      33.7352    27.038712 
 3992000    224.59357   -430.21906       229892   -24625.318    1596.6878   -26222.006   -1139.8668     5815.451     39.65576    33.732729    27.045142 
 3992200    223.26566   -431.51661       229892   -24619.131    1587.2474   -26206.379   -1145.0609    5813.8341    39.656737    33.733328    27.035537 
 3992400    228.42338   -466.70588       229892   -24633.045    1623.9148    -26256.96   -1264.5024    5813.6292    39.658415    33.733802    27.040767 
 3992600    223.40558    -626.2122       229892   -24629.486    1588.2421   -26217.728   -1915.6021    5815.2461    39.659084    33.733949    27.039841 
 3992800    225.94693   -594.12337       229892   -24631.734    1606.3091   -26238.043   -1805.7089    5813.8353    39.659351    33.733598    27.025003 
 3993000    221.31632   -512.39454       229892   -24736.405     1573.389   -26309.794   -1463.1311    5814.3959    39.659656    33.733131    27.031962 
 3993200    226.76737   -556.74923       229892   -24625.251    1612.1418   -26237.393   -1649.1858    5814.6092     39.65889    33.734697    27.044601 
 3993400    229.11754   -523.70363       229892   -24598.786    1628.8497   -26227.636   -1487.8564     5814.274    39.660214    33.735149     27.04499 
 3993600    223.16986   -417.59405       229892   -24605.037    1586.5663   -26191.603   -1104.5586    5817.0818    39.659788    33.735617    27.032415 
 3993800     226.9395     -508.338       229892   -24601.931    1613.3656   -26215.297   -1427.6566    5816.3041    39.658418    33.737427    27.026994 
 3994000    228.23093   -505.92879       229892   -24624.557    1622.5466   -26247.104   -1447.7125    5816.3496    39.657933    33.738271    27.029758 
 3994200    220.44975   -531.60206       229892   -24667.033    1567.2284   -26234.262   -1532.2495    5816.6416    39.656999    33.739369    27.032688 
 3994400    225.28055   -467.28544       229892    -24623.24    1601.5717   -26224.812   -1310.5952    5817.0696    39.656667    33.740154    27.038024 
 3994600    222.38816   -371.12418       229892   -24685.853     1581.009   -26266.862   -905.85461    5816.9806    39.657508    33.740556    27.042104 
 3994800    227.57701   -465.28016       229892   -24626.801    1617.8977   -26244.699   -1284.9753    5816.3156    39.655701    33.741086    27.028567 
 3995000    228.94086     -549.644       229892   -24604.439    1627.5937   -26232.033    -1580.019    5817.0939    39.653887    33.740184    27.020015 
 3995200    222.35059   -489.75552       229892    -24703.05     1580.742   -26283.792   -1359.3753    5818.1884    39.651246    33.738979    27.020927 
 3995400    226.17316   -493.72586       229892    -24619.29    1607.9175   -26227.208   -1364.6014      5816.99    39.648765    33.738667    27.011975 
 3995600    225.92049   -453.87501       229892   -24551.537    1606.1212   -26157.659   -1251.5409    5818.8175    39.647795    33.739405    27.024587 
 3995800    225.87735   -459.50973       229892    -24548.96    1605.8145   -26154.775   -1266.5452    5818.8585    39.646929    33.740739    27.027279 
 3996000    234.27007   -511.92011       229892   -24489.596    1665.4802   -26155.077   -1431.5561    5818.5374    39.645704    33.738835    27.017652 
 3996200    232.21171   -443.81114       229892   -24554.315    1650.8469   -26205.162   -1188.1611    5818.9348    39.642967    33.738575    27.008486 
 3996400    220.16489   -523.23763       229892   -24641.238    1565.2033   -26206.441   -1507.7601    5818.0767    39.638322    33.737452    27.022144 
 3996600    229.21426   -499.65275       229892   -24601.892    1629.5373   -26231.429   -1401.0824    5816.5363    39.636784    33.737609    27.026162 
 3996800    220.74266   -568.98578       229892   -24660.428    1569.3108   -26229.739   -1684.4739    5818.0291    39.634593    33.737056    27.027225 
 3997000    229.02823   -477.74061       229892   -24530.933    1628.2148   -26159.148    -1331.165      5816.31    39.633196    33.735497    27.028251 
 3997200     223.6076   -427.94544       229892   -24608.411    1589.6783   -26198.089   -1170.1678    5818.0921    39.632243    33.733561    27.024407 
 3997400    222.48823   -537.68292       229892   -24665.323    1581.7204   -26247.043   -1532.7998    5816.2784    39.631347     33.73299    27.036681 
 3997600    225.16891    -470.0985       229892   -24636.601     1600.778   -26237.379   -1305.0023    5816.5996    39.628959    33.733693    27.034043 
 3997800    219.57717   -360.68203       229892   -24743.093     1561.025   -26304.118   -912.39306    5816.3564    39.626386    33.735418    27.031736 
 3998000    225.07381    -425.8221       229892   -24652.801    1600.1019   -26252.903    -1137.981      5817.25     39.62542    33.734961    27.030501 
 3998200    226.25759   -561.23436       229892   -24660.095    1608.5177   -26268.612   -1690.7268    5818.7093    39.623135    33.736362    27.028902 
 3998400     227.1192    -407.4595       229892   -24546.473    1614.6431   -26161.116   -1052.0844    5817.0018    39.621818    33.738314    27.020089 
 3998600    219.21916   -333.34524       229892   -24663.919    1558.4798   -26222.399   -798.31172    5816.7674     39.61969    33.738451    27.019604 
 3998800    220.00042   -544.61393       229892   -24626.906     1564.034    -26190.94   -1561.3833    5817.6438    39.620069    33.738878    27.042403 
 3999000    226.60574   -539.87183       229892   -24570.033    1610.9928   -26181.026   -1582.3978    5817.8229      39.6195    33.739487    27.039778 
 3999200    228.85524   -378.17534       229892   -24645.448     1626.985   -26272.433   -953.00412    5816.4056    39.619747    33.739111    27.029986 
 3999400    224.08283   -438.01457       229892    -24665.29    1593.0568   -26258.346   -1166.3108    5818.1804    39.619438    33.737262    27.036605 
 3999600     221.9775   -378.58145       229892   -24665.188    1578.0895   -26243.277   -938.88013    5818.9347    39.617921    33.736225    27.020547 
 3999800    227.07763   -303.70284       229892    -24580.13    1614.3476   -26194.478   -646.79791    5815.9259    39.617487    33.736856    27.014599 
 4000000    229.22433   -446.80045       229892   -24536.691    1629.6089     -26166.3   -1166.3561    5817.2241    39.616901    33.738443    27.009758 
Loop time of 7002.06 on 120 procs for 4000000 steps with 9010 atoms

Performance: 493.569 ns/day, 0.049 hours/ns, 571.261 timesteps/s
98.1% CPU use with 120 MPI tasks x no OpenMP threads

MPI task timing breakdown:
Section |  min time  |  avg time  |  max time  |%varavg| %total
---------------------------------------------------------------
Pair    | 0.18801    | 1664.1     | 5724.7     |4605.1 | 23.77
Neigh   | 0.3286     | 103.5      | 401.35     |1253.0 |  1.48
Comm    | 30.073     | 2834.9     | 6209.5     |3928.9 | 40.49
Output  | 80.229     | 80.302     | 81.681     |   1.4 |  1.15
Modify  | 189.92     | 2263.9     | 6846.1     |5459.8 | 32.33
Other   |            | 55.31      |            |       |  0.79

Nlocal:    75.0833 ave 232 max 0 min
Histogram: 50 10 30 0 0 0 0 0 4 26
Nghost:    603.4 ave 978 max 0 min
Histogram: 10 3 7 2 8 12 25 23 14 16
Neighs:    0 ave 0 max 0 min
Histogram: 120 0 0 0 0 0 0 0 0 0
FullNghs:  7423.98 ave 28969 max 0 min
Histogram: 72 18 0 0 0 0 0 2 13 15

Total # of neighbors = 890878
Ave neighs/atom = 98.8766
Neighbor list builds = 432479
Dangerous builds = 0
write_data 		${DIR}/data.${NAME}_run
write_data 		run_12/data.${NAME}_run
write_data 		run_12/data.ibeam_cooling_12_run
Total wall time: 1:57:00
