LAMMPS data file via write_data, version 29 Oct 2020, timestep = 150705

6011 atoms
1 atom types

9.72073620383388 260.27926379617077 xlo xhi
9.72073620383388 260.27926379617077 ylo yhi
0.7200545336171533 19.27994546638284 zlo zhi

Masses

1 18.015

Atoms # atomic

105 1 123.83105203420142 76.13700627033263 2.980731232522779 0 0 2
3558 1 134.4985535382692 82.80830214118045 13.08979013050819 0 0 1
1710 1 120.24149578536733 80.08778464512729 18.381622976255414 0 0 0
917 1 121.6312211826243 78.13964035657642 1.6164740157597592 0 0 1
3753 1 126.00243638725999 77.53349648470255 3.917390580621809 0 0 1
3009 1 127.81509356903337 77.41595562024753 2.0057576939239943 0 0 1
4387 1 132.820830510287 90.12943190059694 16.025074365606116 0 0 3
43 1 109.41371502894864 85.68704835605891 17.08267187945677 0 0 -1
51 1 113.40717999439484 81.60952406137814 2.4209914743213496 0 0 2
1109 1 115.53510391665338 81.97359368594307 0.8744879063537903 0 0 1
3107 1 114.78783934664636 85.6929615019498 3.2543116718661054 0 0 1
3117 1 118.24206569764546 82.1894384414422 19.27297644330798 0 0 1
87 1 120.26307852584421 79.68854742014832 13.664374270368667 0 0 0
3948 1 121.66702575935726 79.92900918994759 16.31350120475473 0 0 1
4120 1 125.76700150721646 83.34339388458628 17.891368949158608 0 0 2
3065 1 127.60608601185915 80.32721265221107 1.2325233105449365 0 0 0
2070 1 131.4313785709125 83.42872328904453 3.6887020938264574 0 0 1
1755 1 132.89691763547742 84.88545452038618 1.3336952363491816 0 0 -1
832 1 133.2113869411643 86.78034639972373 17.764323177155873 0 0 2
5163 1 107.32101099129105 85.78431192621632 1.0795486069051972 0 0 2
1782 1 108.3004672165114 88.18832236548792 1.750600189166191 0 0 0
1717 1 111.02427102672492 87.2100294420148 2.2113715082740115 0 0 0
3001 1 115.16141909285065 89.78713948207881 1.8991096619118084 0 0 0
4359 1 118.08380391566905 84.68448183234084 17.95511986390421 0 0 -2
7 1 121.03144190896782 86.69328424797132 4.395541012406772 0 0 1
3064 1 122.67234166280399 83.70312629601057 19.052463941515427 0 0 0
3184 1 124.30408509628093 85.63898731493687 16.66984835777991 0 0 0
5639 1 129.8842529659202 86.73984936984046 2.349621931674024 0 0 -1
3098 1 128.4142547561153 86.76767548756843 17.1146683071179 0 0 0
3575 1 134.65755082207798 89.21007802558255 1.6383331511722503 0 0 1
530 1 104.19742862298766 88.61104959556786 18.596484501427856 0 0 0
245 1 113.50063752758751 88.03380308287949 3.418719366283426 0 0 0
112 1 116.9228457763618 87.03677280607563 1.2726925283843928 0 0 1
465 1 123.61440761714168 87.87865888125513 1.7478553708331859 0 0 1
549 1 129.45583679220772 88.47891519127316 18.87031932049928 0 0 -1
2265 1 101.42990162484222 91.00420637443906 4.166413347096511 0 0 -1
275 1 131.78716330832637 82.90716662957003 18.322388213965368 0 0 -2
827 1 102.02094939493885 90.1054715609497 17.190903478370366 0 0 -1
4 1 113.60383164222218 88.60816891007362 17.761379147438927 0 0 2
3607 1 111.61244336078246 92.36936824708312 18.649808493795142 0 0 -1
39 1 113.97672953284308 91.47350991890063 3.726912616763633 0 0 1
1313 1 130.59645273006032 90.16182122219608 14.4982855627681 0 0 0
2643 1 114.69176723530488 91.48870451595218 18.131521800297687 0 0 1
2679 1 119.03257712970375 88.02651472135992 18.016031661616324 0 0 0
4071 1 125.83825616508426 88.87733107711436 1.202657867256028 0 0 2
3507 1 128.4576318599075 91.08176313274528 18.243828938460332 0 0 1
3311 1 131.87350179861588 91.10696589094195 1.7731672132123801 0 0 1
1063 1 123.67001427074773 93.13497945968143 1.9726849864710947 0 0 1
2157 1 130.2713703779001 76.11564455291956 2.8846373886665035 0 0 1
3057 1 132.0343786713606 77.06726477992989 5.2482828690586425 0 0 3
4812 1 133.9034702742895 75.47154330995771 6.536787161790414 0 0 0
68 1 115.58500179482841 83.01933321119859 5.702887074416754 0 0 2
74 1 116.67160178196093 81.26914043500756 3.706979841455047 0 0 1
77 1 120.91012820021585 79.08211064350728 4.075066426107023 0 0 2
3931 1 118.3495775627932 79.47294395832041 5.012375202925393 0 0 3
101 1 124.82189401367691 81.47371378521171 1.4425442387498724 0 0 0
3087 1 128.5893592226558 77.14809930837488 5.231795015299119 0 0 2
233 1 122.54886441029946 82.96121229824016 16.587485488642383 0 0 -1
80 1 110.65352450414188 84.88011819429818 3.7285342799309205 0 0 2
41 1 112.1025074435324 83.12749954210052 19.182773171660948 0 0 0
1050 1 116.74129269581522 85.70380350771384 5.167570975073143 0 0 1
2601 1 118.59852201307481 82.96020107632802 3.3334173384639247 0 0 0
2189 1 121.87868032405727 81.29187937394939 1.709656104489808 0 0 1
1779 1 124.35854044466166 78.54994687905682 1.2030697685505516 0 0 1
3443 1 123.14568288911907 83.7429900563121 4.93153388334328 0 0 2
1383 1 129.32847961076777 81.15683230977014 3.392543958872165 0 0 2
3475 1 132.96413338262795 83.7657731869478 5.99060879832352 0 0 2
94 1 103.19651919939426 92.18098592522388 15.851833437289327 0 0 -1
492 1 125.2570969541886 92.5957201230718 12.994385558552656 0 0 -1
1901 1 105.20676002824845 88.54547577594735 2.8469563937100832 0 0 1
994 1 109.44747220439257 84.07103337567615 1.1466053464565429 0 0 2
2798 1 110.71153997633216 89.46629799913732 4.3134613079748885 0 0 2
3084 1 116.55524417696084 87.06890398793242 8.39412114997436 0 0 1
3085 1 118.61996883441213 85.63204202306936 3.1450148095976243 0 0 1
1157 1 123.73090581847686 86.1514990294644 3.8044216028969893 0 0 3
5486 1 123.5247491989614 88.16220773248101 7.988901522075363 0 0 2
1787 1 127.56905494174595 83.69104465307481 3.508800467638174 0 0 2
5304 1 128.27168818995955 84.62624431960019 0.9411015225305561 0 0 0
34 1 132.81470734604986 87.05357657120936 2.833727841944338 0 0 3
4574 1 133.30067823536544 86.29124360020856 5.211226910837635 0 0 2
21 1 122.12287217595656 87.3508160961153 17.93873048133199 0 0 0
1916 1 104.21398530508795 90.94210206509435 5.078703912085057 0 0 0
2581 1 107.86928256054904 89.32360280101838 4.519633901653068 0 0 1
4279 1 117.69435374550459 88.99356107479166 3.635792796680078 0 0 3
3015 1 120.60943595972468 89.48094010387915 4.34429915171316 0 0 2
382 1 126.28908566894351 86.19775455093561 5.008118861920217 0 0 1
62 1 128.80510491980513 90.69380374859853 4.500726060079959 0 0 2
3011 1 131.29453530836807 89.23935409187884 4.3328543862661 0 0 1
2052 1 133.3331265213353 91.05230794791787 4.796690759220609 0 0 1
5073 1 129.04041433434756 82.27409148754559 18.661725143740277 0 0 2
81 1 117.7805254671196 91.44974360654956 1.656706191178148 0 0 1
2791 1 105.11938229049014 91.40361776520632 2.2123373260505006 0 0 0
407 1 106.95441825299496 91.75257252356069 6.2006029170660915 0 0 0
4720 1 134.22153813636496 75.21608292828273 11.223262286167607 0 0 0
787 1 110.82492071103195 92.36917011559332 3.140898209723531 0 0 -1
3350 1 111.80436721491193 91.80121158363468 6.024351054290495 0 0 0
3081 1 132.6611229538475 77.62177893910243 2.3691838039662665 0 0 0
2290 1 116.4277409275614 88.92683816220836 6.062207359774887 0 0 1
3721 1 124.9964580228197 91.5016477571044 18.67983550556519 0 0 -1
2866 1 120.31602761126386 90.27657641563773 18.81025240447169 0 0 -3
3025 1 122.32609202018392 90.31705861217733 2.1440571054415076 0 0 0
52 1 127.59312894421684 87.97948974317104 3.3300507812751836 0 0 0
1970 1 125.77973708530938 91.0076295298546 4.976543793012268 0 0 1
5882 1 129.44394733111287 92.16909802701736 2.126501257400943 0 0 1
160 1 134.1500841184275 92.36014156251946 15.063872092978492 0 0 -2
3293 1 123.7984680673034 75.79235998776494 5.9108284829184194 0 0 1
3042 1 127.50727455811005 76.62296374897365 7.676072386792306 0 0 1
64 1 133.0657706797503 78.83169357409409 8.925597304965446 0 0 1
114 1 118.2487779348397 81.11845478847789 7.162253723302832 0 0 1
2026 1 123.06812502837946 78.34259460336297 5.582131968050398 0 0 -2
3103 1 122.12946193442991 79.29977830871718 7.9537808859326375 0 0 0
2811 1 125.16093444619095 74.86622160490691 8.17074930842514 0 0 -1
5125 1 126.65273143431283 79.56265224065781 7.855209963151698 0 0 -1
5720 1 133.70021454152854 79.56909330387681 6.046927650593558 0 0 3
4655 1 128.99229187588 92.28438140639243 14.822214743114213 0 0 0
47 1 113.10738546132654 83.62465634675854 4.461164646892234 0 0 1
2467 1 117.27501627821415 87.13026533058576 11.332275639218414 0 0 1
3221 1 120.78202141626953 82.26620762473847 4.211911256628471 0 0 1
5297 1 125.50179706666754 79.69030450934713 5.306529167563798 0 0 2
4485 1 129.67175466510486 79.50842972877466 5.61309735137608 0 0 0
1543 1 131.20540577209377 84.02964453983512 7.958027907160233 0 0 3
3106 1 134.49340319701568 86.37422210238098 10.290111955179045 0 0 0
65 1 109.6113570151702 85.42567254062587 9.134640372579785 0 0 2
1335 1 109.60382627288203 84.26229823047657 6.312925867416495 0 0 1
53 1 113.77494199037888 86.44616593964598 7.098897057148456 0 0 0
1719 1 114.89522533964083 88.5919951236922 10.286769114398483 0 0 2
23 1 119.1471879833403 88.51906201917502 8.160764963505201 0 0 1
1052 1 125.71073119759693 86.35224389972966 7.842173335048588 0 0 0
2050 1 129.3548480542913 85.20185434865694 4.991948071128899 0 0 1
1301 1 103.8746486670114 89.00336780623942 7.511480752545845 0 0 0
1574 1 106.51749339589135 88.47087034471042 8.385774985195475 0 0 -1
1534 1 108.63650008534641 87.12458202023633 6.898312447393293 0 0 -1
1556 1 110.95633812990276 88.23986173574201 7.8144163745001745 0 0 1
1341 1 118.69084805381112 89.48770042023308 12.68046844418739 0 0 0
4350 1 113.62162747260992 89.08028745075895 6.162273522635182 0 0 0
2385 1 121.3236557833779 86.63121446030999 7.229555526322424 0 0 2
2563 1 123.75415360450492 89.04093359852038 4.916942349622718 0 0 1
5153 1 129.2306973022788 87.66558669873613 6.344250281736761 0 0 2
35 1 131.77694310883166 87.95441055448283 7.106647649549299 0 0 0
3112 1 132.9518612234388 90.48590623074129 7.501814894421117 0 0 2
660 1 101.21769179492759 92.08744862668472 10.037036029375138 0 0 2
48 1 103.69666906123932 91.28889498768946 9.239192335006873 0 0 1
1767 1 129.7501518663819 85.59264243866201 13.645770335625752 0 0 -1
248 1 109.04556045047028 90.6606794978159 7.727670337631924 0 0 0
1676 1 111.10331079576432 90.17244477862236 17.07762938492805 0 0 1
744 1 112.09738832631149 88.441793006702 10.207635382311619 0 0 -1
2567 1 113.9033506947449 91.54474026703964 8.16237252589489 0 0 0
3093 1 134.80512087424418 88.61965689188435 14.61688670971952 0 0 1
121 1 117.97917150385919 91.01902028043357 7.6081607126564545 0 0 1
3272 1 121.28549764490815 90.22278612833827 6.94772275929825 0 0 0
5867 1 126.08291357184851 90.82891185136056 7.669313671097481 0 0 -1
295 1 127.27431653855318 88.52559088858543 8.374674806156127 0 0 -2
59 1 131.77505066600366 92.93520242453023 7.365951982349429 0 0 -1
2999 1 133.99510257123202 85.69660090934968 15.265864921326086 0 0 1
4137 1 129.21301069077865 74.312051570296 11.172151316897175 0 0 0
54 1 134.43391746796877 76.78032387942635 13.570496464967592 0 0 1
5900 1 128.22408642333025 76.20778218914064 13.054134750490833 0 0 1
5894 1 129.81497901082 76.3023910810032 9.364811509959873 0 0 2
3111 1 132.71530631206414 76.0991545202814 9.15582882906453 0 0 1
42 1 115.49766289920893 81.6308283339538 8.293153637010644 0 0 0
742 1 119.87725777398805 83.99086748239961 8.239495574256413 0 0 -1
71 1 121.03151408226866 81.7416185441792 6.9069081475875675 0 0 1
1070 1 123.49140108267078 78.79135755717998 10.240895609264022 0 0 1
5006 1 122.52823483728989 82.70763627448915 11.346424549256545 0 0 1
5464 1 128.73624040108075 78.2923598550223 11.117635388123148 0 0 0
4619 1 131.13722671914186 80.31749658237709 10.141287691254073 0 0 2
3105 1 134.02374881107076 79.17910193173839 12.377965125099907 0 0 1
299 1 112.38713035065244 85.48118010886482 9.46200663319284 0 0 1
1356 1 111.99371208675204 83.51119003892582 7.235858617366137 0 0 1
1351 1 112.91011328130664 81.216909755132 8.646133840111077 0 0 0
1321 1 117.2065253723722 84.46249169736815 8.364570875289242 0 0 1
5212 1 113.73862087821043 84.10852836307178 11.275989521029597 0 0 0
4594 1 123.02693628928637 84.14835690337982 7.585372615825978 0 0 0
10 1 125.23548350484573 82.25290628496235 4.029917646720601 0 0 1
3031 1 132.09818894546976 83.09585204331117 10.782800127946794 0 0 1
4559 1 122.06041446419026 92.53789063333902 8.265469225273165 0 0 1
3060 1 132.04440716315543 89.31442326678983 18.3313067194646 0 0 0
2397 1 106.97620077516248 86.79959966569233 10.535694172921687 0 0 1
1289 1 109.7506283984198 87.35798111038183 11.899175037983605 0 0 0
92 1 120.18687005756752 87.88622966513806 10.730317289080787 0 0 0
1814 1 125.00267382205143 83.53928418434062 9.653475014870244 0 0 1
4983 1 127.87355650113106 85.13083705162553 9.46193154286159 0 0 -1
3043 1 129.14283883511922 80.7228849338748 7.892173515398998 0 0 1
2669 1 128.57624360157814 83.34364037038081 7.231111116080918 0 0 -1
3620 1 115.64679020897012 92.74388224050456 5.940271693076255 0 0 1
1075 1 105.08199735216935 87.93444667497609 12.424879086374341 0 0 0
236 1 111.43288337564226 91.5345864328107 9.658121567924619 0 0 0
2486 1 116.17039773659842 91.07532270880519 9.909167118574583 0 0 -1
2267 1 114.80065680034095 87.8105599433137 13.173937016028827 0 0 0
582 1 123.12340333291036 88.78980508533833 10.761386080644284 0 0 0
3080 1 124.11541543705802 85.99920421963694 11.016668181845386 0 0 0
5408 1 126.0783279268568 88.4858938272729 12.505927251137283 0 0 1
5797 1 131.7735858492502 86.32405449800788 9.406957951117773 0 0 -1
1883 1 133.5222564914877 80.32075747715345 15.333329808191804 0 0 -2
300 1 128.90965608835396 92.54284075624781 6.592603225659527 0 0 0
836 1 104.96304048111944 90.76108793005993 11.45914482789231 0 0 -1
1706 1 107.48807653058748 90.80849268681924 10.029141299617221 0 0 -1
232 1 107.84320858695713 92.37803420721012 3.443231069704712 0 0 -1
390 1 116.98157025968672 91.62604745454449 12.532333362717551 0 0 1
3068 1 118.74880394268806 91.89416709356759 4.918129312189363 0 0 2
95 1 120.73527953349036 91.7590094099925 13.058160093230576 0 0 2
5887 1 124.1015594423945 91.07773876959718 9.507391727501256 0 0 3
4353 1 127.7418054355255 91.60636150629284 12.602295390149717 0 0 1
2349 1 126.7402867957842 85.51777477334132 12.536158506806961 0 0 0
309 1 128.58632720018866 89.32531132917407 10.836361687717385 0 0 0
38 1 116.58253122109343 90.00960858562253 16.573888369722123 0 0 -1
3174 1 122.8840369488581 90.15307135374923 17.311075285965934 0 0 0
3613 1 132.8839682289289 92.44320954988198 11.576472974062888 0 0 1
3649 1 131.7890598792419 74.37627856951512 12.6006842000192 0 0 -1
14 1 129.77256236833713 77.80556785958827 14.657709718510015 0 0 0
4855 1 119.94030872165335 92.84650395099138 17.382688185263792 0 0 0
1293 1 112.44509901838293 81.71952068349445 11.476821733964847 0 0 -1
2135 1 114.79358732685563 80.8872044836723 12.712681265441534 0 0 0
1467 1 116.28166950802205 81.59947770322988 10.91756040261478 0 0 1
338 1 119.37953939201475 79.1721634213472 8.829428169564414 0 0 0
66 1 119.72616962015998 82.76970661525881 10.69725706204375 0 0 0
108 1 124.8136836595237 78.39612965710455 13.994218452850978 0 0 1
4961 1 127.3909214660984 79.77790032771479 13.47175090068889 0 0 0
1022 1 126.07356323592154 87.81958062444849 16.99746699837932 0 0 -1
5583 1 123.36507277074726 88.81553868325709 15.030287937786445 0 0 -2
1822 1 111.51648478124636 82.67268093563845 14.112476523384425 0 0 0
3404 1 113.00721118569426 85.12904567270326 13.648062977501013 0 0 1
1006 1 116.65429166383669 84.30166272339324 10.985346232798348 0 0 1
2232 1 121.54059685771104 85.59443146441225 12.29048393723813 0 0 2
29 1 126.11313413733647 79.80750562377575 10.433830614899755 0 0 0
4014 1 129.24261739271162 83.32891096877357 12.096674149869907 0 0 -1
4533 1 131.2251489423431 79.79909313926542 12.959059328796078 0 0 1
270 1 124.60830193860345 82.07827657786466 13.69934708456496 0 0 2
333 1 110.52953864521821 86.41630856725041 14.32547282866279 0 0 -1
2726 1 112.90610644549034 88.3328405871827 14.951148798823574 0 0 0
31 1 118.9109942416877 84.03773998525637 13.012434645270734 0 0 1
332 1 114.67677644997536 84.68271126316472 15.818231397414314 0 0 0
3409 1 129.6025485092735 86.69964895733634 10.91142541063406 0 0 1
3099 1 126.64653937902604 82.35488058374537 11.67197615199966 0 0 1
3755 1 132.6442390409294 85.33849558166366 12.789395022002148 0 0 0
4046 1 132.56454281576583 83.05291037088546 15.516739288458599 0 0 0
1801 1 108.94302541353417 92.38899554599615 14.879984479568861 0 0 1
1308 1 106.6292971043757 89.04859292275663 14.097640268287197 0 0 0
84 1 108.80812201662206 89.93063222388136 12.288512279963422 0 0 1
127 1 110.95809723296892 90.51325724994274 14.276240405682909 0 0 1
1784 1 115.15006329990877 90.4600443955807 14.038583633904565 0 0 -3
26 1 116.9712541285163 85.92768691513409 14.034641949656509 0 0 0
565 1 118.6077520925294 87.981477982519 15.005902689184854 0 0 1
1348 1 121.01313823794624 86.94337893605015 14.979723497578387 0 0 0
3082 1 123.40660713693649 84.49972281038954 14.093644754513027 0 0 1
2673 1 123.50014027903542 90.70335345406838 12.831059976031064 0 0 2
979 1 126.22901239273607 89.80208905467302 15.239318617995469 0 0 -1
4113 1 128.6812673565148 88.06636125018122 14.488291931970062 0 0 0
1059 1 133.13493815300865 88.39422066664525 12.250645957943911 0 0 1
100 1 106.00146909134263 90.71846781172836 17.80181769296829 0 0 -1
2079 1 102.04243691002574 91.40368032540205 1.3045969089755007 0 0 0
2572 1 104.25664467191466 92.47862240642 13.430043907697389 0 0 1
1959 1 106.38102512073358 91.46028836623434 15.19875239521149 0 0 0
224 1 108.5998990603135 89.64003025288704 17.93375909764905 0 0 0
737 1 112.77667915855868 92.38324105748686 13.778326130274179 0 0 0
2039 1 117.58387735471447 92.47933604722395 15.426600269277781 0 0 0
2061 1 133.20316319839165 77.69019531566262 16.63773574957168 0 0 1
4400 1 126.53771762054755 92.49098180925903 16.451103334894867 0 0 -1
2706 1 121.95620391659723 92.47418977038046 15.431484195995427 0 0 0
1228 1 131.17005599257445 90.08784762219321 11.779161660169235 0 0 0
2238 1 124.25546434412357 78.48622890420187 16.55607347975827 0 0 2
57 1 125.64846902356193 76.02166315271883 12.803250634045682 0 0 0
4873 1 126.15347005711976 77.14404459049379 17.91722108019099 0 0 1
56 1 131.70009350213195 75.77695995857975 15.021824141502773 0 0 1
4003 1 131.08437060075312 78.45336690275225 18.422425407983198 0 0 0
5 1 115.07663990380168 80.65066071912824 17.15143221959304 0 0 0
3183 1 118.58496747640697 81.93936052304231 14.628928181208089 0 0 0
2485 1 118.71333797760914 80.34474348262094 11.09580022612569 0 0 2
123 1 122.77785789217343 80.06913267807553 12.71279626317374 0 0 -1
2285 1 124.17805336398631 76.18042676524983 10.495054414939373 0 0 1
689 1 130.27272875358847 81.99344317366203 14.303362461104449 0 0 2
3245 1 128.47482165321085 78.62968593317527 17.18380448225012 0 0 1
1816 1 132.2516760749612 80.48653427493083 3.4588807211127763 0 0 2
558 1 109.09430263462806 84.02247898984503 14.676025784283583 0 0 1
2758 1 112.51840277946658 81.58703606326799 16.791662038477536 0 0 0
111 1 114.5955708850425 84.63424218382642 18.85096566746858 0 0 0
1250 1 115.87037175313071 82.20154997269633 14.9468884189287 0 0 1
1368 1 120.06920015480007 84.37244418289619 15.91620851340708 0 0 -1
5204 1 125.07257135421851 81.23256360510308 16.10549077561955 0 0 1
5082 1 128.15869291947948 81.02529998631914 15.983313186847358 0 0 0
5438 1 132.86872089167207 80.51117659792604 18.95828104319315 0 0 2
1332 1 105.39417766125992 86.58877999461488 17.571408992172096 0 0 0
357 1 107.35271294057792 87.60024068653371 16.34974007311154 0 0 1
1510 1 111.94074272618255 86.06517663874675 18.265971824568915 0 0 -1
1577 1 115.9164421151104 87.09178428698559 16.980139889552184 0 0 1
88 1 120.5779703001546 85.52867484374214 0.7858665082676749 0 0 1
4973 1 118.56932467607326 93.10484094524124 9.797522240410823 0 0 3
716 1 100.47081364984157 93.21789381319951 5.513039268879262 0 0 1
2062 1 101.58844283688147 94.35492432355397 16.164226893423148 0 0 0
1820 1 106.92410406807011 98.16650791490015 2.258685301468388 0 0 -1
67 1 107.00466534627309 95.85794136583304 3.671175552366152 0 0 0
76 1 110.42586704121113 96.61734075376042 1.2894674846173464 0 0 2
3019 1 113.81995330641509 93.66223289567614 1.7978227114918715 0 0 1
1839 1 112.61842432696054 97.38765403267763 5.053705041985446 0 0 0
85 1 119.18377725444968 93.80159033305408 2.9436946170027833 0 0 1
464 1 125.66866540391291 176.5062091975529 17.130740115052674 0 0 -1
1846 1 127.20968420225581 96.17280424411153 3.407972454471279 0 0 1
2 1 131.27251937872225 97.05172399725754 1.6847858904634705 0 0 2
2091 1 133.70849115105273 93.75812513123373 17.47439180196431 0 0 0
615 1 100.47271240422795 97.29383977058127 2.641702259376363 0 0 1
1639 1 98.7300363336057 99.16116457541835 3.2530866128489406 0 0 0
910 1 103.05580535980913 98.9401533827907 1.2055672502460195 0 0 1
1905 1 103.73117737194221 99.4650839393481 16.032636079596212 0 0 -1
1819 1 110.49276883779325 101.55631421449112 1.1923439340594413 0 0 0
4921 1 109.57401342130471 99.19597262231598 2.402065452556703 0 0 1
1169 1 112.60523134309521 99.52514481944397 3.1106992000205445 0 0 0
539 1 118.20743767593389 95.97403085291774 4.102294700829554 0 0 2
442 1 124.90471076293184 95.94109174675563 1.5893516315772311 0 0 1
2535 1 120.91431722010823 97.08512078831295 4.72263535951801 0 0 2
1266 1 124.13078840450979 98.44890372031846 2.651809641179655 0 0 0
3694 1 129.17668964907205 98.64047021669101 2.45688407740742 0 0 1
217 1 131.70210068066115 100.66636728533109 3.193815263915615 0 0 -2
2154 1 121.06499517241011 93.6337057738802 10.754926584202373 0 0 1
919 1 94.97048413443417 101.14903005467175 1.1929801608280244 0 0 -1
2153 1 99.8172508633393 101.87251108956775 1.528947896225576 0 0 1
1002 1 104.84154989775362 99.15291183739805 4.059980895727214 0 0 0
1032 1 104.10086811340719 104.00014605541384 19.274749222194977 0 0 -1
129 1 107.67914150324525 101.9930202595181 18.390574702146964 0 0 0
1714 1 105.23922781400816 101.03529909433799 1.5599805544764511 0 0 0
314 1 111.39124501991446 102.08418047913337 5.5051794593906935 0 0 1
20 1 114.54768070282138 101.75620540252804 0.8255870983436701 0 0 1
2851 1 116.75554785940886 99.7229669180678 6.0126002165733015 0 0 1
25 1 118.80586050434623 102.53592888102717 6.029618257185542 0 0 1
1790 1 121.42511960378087 98.3285669949587 2.1978604828281445 0 0 1
455 1 123.53849005958143 101.42260069401549 1.1433317628036797 0 0 1
348 1 127.86829896668772 99.17408576023203 18.510097695419766 0 0 -1
3709 1 129.4553210757443 101.53525783698899 1.69660165998025 0 0 1
3650 1 132.58315734838266 101.71553126935507 19.171910132340567 0 0 0
244 1 107.65430466908468 93.62728240476143 9.462195538180955 0 0 -1
1592 1 95.65977441614847 104.02162578929274 0.7350321584316809 0 0 1
1756 1 97.94319426150162 103.76014547643527 2.7031957611752344 0 0 1
1179 1 102.02581934119013 105.23899396303426 3.1667072855273446 0 0 0
1220 1 106.92691845095042 104.68395449799787 0.8888755397831751 0 0 1
2113 1 105.89183524680304 106.60798258990845 3.0464008307816175 0 0 1
766 1 111.51961991761628 104.59445530427868 2.045969626366255 0 0 0
60 1 114.12342229021506 106.08841702727008 2.3951158389343488 0 0 1
1115 1 117.16266640403599 103.35532357634882 4.130534243426993 0 0 -1
1847 1 121.15082902298327 101.24917577277382 5.255943257930279 0 0 1
1678 1 120.4745961710262 104.2297889278931 1.477193720679859 0 0 -1
707 1 120.7598352240655 101.51137270281306 2.4503883946822413 0 0 1
188 1 127.66927900466113 104.72997028061256 18.77178574286697 0 0 -1
675 1 129.29379992906368 104.55761248420662 2.4299177245269448 0 0 -1
3715 1 134.9809842581883 129.43467832031672 15.898167126837972 0 0 -1
437 1 129.53206581699047 95.01763188540961 2.292478207501516 0 0 1
1255 1 93.31191391308427 106.19429252936995 0.9651799069979845 0 0 0
1176 1 91.83281347540922 107.95558818471258 2.4143716485576374 0 0 0
1108 1 98.89571534318905 108.20412243725401 1.0437192805453823 0 0 0
1929 1 99.29067088093082 109.39968210564263 5.6016931031505335 0 0 0
2333 1 103.56127645108658 107.08199938927253 1.8874895857492795 0 0 2
2239 1 104.54290591207688 109.96068946932442 18.410416783306346 0 0 -1
16 1 107.89406841013908 108.55919158504399 4.441490534361424 0 0 1
1598 1 113.11396823108493 107.44510831486319 18.1514059178661 0 0 0
2591 1 108.81934413521904 107.06112674363325 1.2986994256513045 0 0 0
126 1 115.27486908913049 109.40999592171917 18.526162908535174 0 0 -1
4942 1 117.88286681067213 108.71795851825743 18.880352715814766 0 0 -1
2242 1 121.6328597732087 106.2695381035898 3.607407278069519 0 0 -1
1523 1 125.2746756856431 108.6280808142097 18.815380022119154 0 0 -1
1728 1 128.1800654409859 109.22868079967455 18.937446148930604 0 0 -3
5166 1 127.83556841074036 107.42140149417317 2.632154604484091 0 0 -1
103 1 129.76731710108382 108.68189262162691 4.148342168650507 0 0 1
2000 1 132.41811632348535 109.787015581668 1.21270568670962 0 0 1
1018 1 91.0821148338227 110.0992986515169 19.24211962011572 0 0 -1
1599 1 94.69027150776486 107.98921365886363 18.47831426284571 0 0 -2
2878 1 103.16288651237814 109.30664341254253 3.607609849990003 0 0 0
69 1 111.2226806467995 110.94703640611607 1.3610151614342325 0 0 1
1494 1 114.07900479796665 111.11035867804783 1.826105583765465 0 0 -1
2136 1 117.77823578616531 110.7336489464146 2.4832598764669283 0 0 1
741 1 121.67269681840189 108.65566266563259 2.0183428293002144 0 0 0
672 1 122.70349938071978 111.93925945735504 1.4941335722597342 0 0 -2
2634 1 125.72831533373912 112.54157049517711 2.248878536547807 0 0 -1
2631 1 128.170737421537 111.75373415078485 1.1851741149767152 0 0 -1
2084 1 130.2432963820668 110.95371263644388 2.794423326712624 0 0 0
4093 1 131.14333002060312 113.40568085056725 4.111029865952191 0 0 3
1460 1 85.84173854606748 114.33240782126761 3.191072700938858 0 0 0
413 1 87.62555497740982 113.0136817662209 18.575370913969877 0 0 -1
519 1 89.18456472106237 111.21298686075575 1.9858306928934046 0 0 -1
404 1 94.56043717537138 112.4518664861609 1.2818898491741062 0 0 -1
432 1 98.68780818811352 112.38229364157421 3.2446210224178493 0 0 -1
1468 1 96.88704402220289 115.26675888071316 4.113077168592564 0 0 0
1843 1 107.17775817834615 112.33884529728225 2.37959642146852 0 0 -1
816 1 107.5787666274589 115.24644378598457 2.6913091359247705 0 0 0
1642 1 109.72021590532282 113.0816811360541 0.8255641883630241 0 0 -1
2443 1 112.63436546825329 114.2054313448272 1.8878664699400913 0 0 2
297 1 114.57171877776945 113.3939223823519 18.850778318741458 0 0 -2
2213 1 118.75640461145886 113.00534058497408 1.0890770908487055 0 0 -1
2648 1 116.90036766417411 114.97477410524655 1.0273085633486136 0 0 0
356 1 120.97294845853513 114.09959268831935 2.2037792088397916 0 0 -2
5657 1 127.78897612757864 115.81866959816911 18.69581171873632 0 0 0
5723 1 130.33186594468447 116.87876656836289 19.15563481619556 0 0 -1
5746 1 130.85580126783304 115.73646760879159 16.377979415459084 0 0 0
2365 1 84.63948880050441 116.93352771943884 3.0287326985456464 0 0 1
202 1 88.27341128752174 115.0293193469346 2.3711897739149057 0 0 0
2346 1 97.92824038967115 116.68935997093102 1.0470034631339353 0 0 -1
1410 1 94.41550677608839 118.92976224426182 3.1858567398391466 0 0 -1
644 1 99.6294720666885 116.77195139925927 3.4028840388677235 0 0 1
2362 1 104.42459583737363 111.59764921000152 2.275614357679629 0 0 1
3048 1 106.24169329951636 117.06346008998806 1.072828791001459 0 0 1
1008 1 108.93259774861086 118.18237389820841 18.429014597767477 0 0 -1
1621 1 110.86401422958612 115.63523264932547 18.14866340885122 0 0 -2
3466 1 115.26578452960494 118.80242900013623 19.10517728184801 0 0 0
385 1 113.07901970881412 117.16249796919229 1.275502317304609 0 0 0
1982 1 119.88204080478583 118.54826257791501 1.2321260286178537 0 0 -2
718 1 121.86220595395962 116.56357706203094 1.183680106033849 0 0 1
5540 1 124.36532687942342 117.04441539187475 2.477498681992966 0 0 0
3097 1 126.36943796293826 115.27761271125406 2.3146920558811606 0 0 1
5234 1 133.32535072384206 118.2121812839021 1.380745351037245 0 0 2
1412 1 85.85985309134345 118.80107037258293 1.333974889612001 0 0 -2
337 1 87.23656118540218 118.77744536174792 4.2075562708827094 0 0 -1
422 1 89.38190097269496 117.47980779375862 3.7095606424201 0 0 -1
2819 1 91.44665905600924 119.16967960123625 2.8681650059400496 0 0 0
2552 1 95.69980194510748 121.28560648267184 1.9225257135958904 0 0 0
358 1 97.84144865048684 119.42636127839877 0.7950017940315836 0 0 0
438 1 102.6687286938777 116.78941961550834 18.660143167376138 0 0 -1
2536 1 101.19579763448044 118.56225970849117 1.9239639005225964 0 0 0
871 1 110.82700321227419 118.74219983285273 1.964556637478579 0 0 0
975 1 112.10473739133178 121.3236490275751 1.7995241623206955 0 0 -1
1999 1 124.94469351830394 120.63321153877374 17.730928915859007 0 0 -2
1143 1 124.9293587348377 119.58365973567565 2.0958156111509005 0 0 1
5794 1 128.07346519057018 119.96701675424099 2.5439803552060263 0 0 0
5755 1 129.66455836519972 175.6302297642221 11.00149640885154 0 0 0
972 1 131.29796817316134 93.75207586301141 9.719027154759505 0 0 0
2129 1 86.20129954243752 121.67230158099719 1.5970060185178074 0 0 0
292 1 88.80603676626349 122.79135322450334 19.188159096006004 0 0 -1
1005 1 90.45002898836013 123.90288659746997 5.163121418519038 0 0 -1
2088 1 93.24604294868949 122.91569910420309 2.6296234860807433 0 0 1
2340 1 99.65966755850692 123.0530460815753 2.897222281547835 0 0 -1
2063 1 100.49500246564125 121.16883271561167 1.1060763610398103 0 0 2
1693 1 103.0279957266348 122.00177433758503 1.2174967594079948 0 0 1
1300 1 108.1103137317823 122.30653072891094 1.2771941425667275 0 0 1
2721 1 111.89553707550743 126.34882885498777 2.103657548557768 0 0 -1
1271 1 115.97516842781187 123.51449459821313 2.3129280286676246 0 0 0
732 1 121.4117411763114 122.68979179278762 19.08202030336526 0 0 -2
2542 1 119.37455138287484 124.13351498106123 17.807251605743183 0 0 -4
964 1 125.47073864399133 123.85731921017288 1.9965177894239885 0 0 0
1595 1 128.20852472922948 123.10333415694141 1.181961395622516 0 0 1
1875 1 130.29113402754578 121.71644156822579 3.004089259483613 0 0 1